HEADER
"PSFversion" "1.00"
"I0v" "I0"
"I0n" "b_memr2"
"E0v" "E0"
"E0n" "analogLib_vcvs_spectre"
"E1v" "E1"
"E1n" "analogLib_vcvs_spectre"
"V10v" "V10"
"V10n" "analogLib_vpwl_spectre"
"V9v" "V9"
"V9n" "analogLib_vpwl_spectre"
"V5v" "V5"
"V5n" "analogLib_vdc_spectre"
"V1v" "V1"
"V1n" "analogLib_vdc_spectre"
