HEADER
"PSFversion" "1.00"
"I12<1>v" "I12_1"
"I12<1>n" "vrand2"
"I12<2>v" "I12_2"
"I12<2>n" "vrand2"
"I12<3>v" "I12_3"
"I12<3>n" "vrand2"
"I12<4>v" "I12_4"
"I12<4>n" "vrand2"
"I12<5>v" "I12_5"
"I12<5>n" "vrand2"
"I12<6>v" "I12_6"
"I12<6>n" "vrand2"
"I12<7>v" "I12_7"
"I12<7>n" "vrand2"
"I12<8>v" "I12_8"
"I12<8>n" "vrand2"
"I12<9>v" "I12_9"
"I12<9>n" "vrand2"
"I12<10>v" "I12_10"
"I12<10>n" "vrand2"
"I12<11>v" "I12_11"
"I12<11>n" "vrand2"
"I12<12>v" "I12_12"
"I12<12>n" "vrand2"
"I12<13>v" "I12_13"
"I12<13>n" "vrand2"
"I12<14>v" "I12_14"
"I12<14>n" "vrand2"
"I12<15>v" "I12_15"
"I12<15>n" "vrand2"
"I12<16>v" "I12_16"
"I12<16>n" "vrand2"
"I12<17>v" "I12_17"
"I12<17>n" "vrand2"
"I12<18>v" "I12_18"
"I12<18>n" "vrand2"
"I12<19>v" "I12_19"
"I12<19>n" "vrand2"
"I12<20>v" "I12_20"
"I12<20>n" "vrand2"
"I12<21>v" "I12_21"
"I12<21>n" "vrand2"
"I12<22>v" "I12_22"
"I12<22>n" "vrand2"
"I12<23>v" "I12_23"
"I12<23>n" "vrand2"
"I12<24>v" "I12_24"
"I12<24>n" "vrand2"
"I12<25>v" "I12_25"
"I12<25>n" "vrand2"
"I12<26>v" "I12_26"
"I12<26>n" "vrand2"
"I12<27>v" "I12_27"
"I12<27>n" "vrand2"
"I12<28>v" "I12_28"
"I12<28>n" "vrand2"
"I12<29>v" "I12_29"
"I12<29>n" "vrand2"
"I12<30>v" "I12_30"
"I12<30>n" "vrand2"
"I12<31>v" "I12_31"
"I12<31>n" "vrand2"
"I12<32>v" "I12_32"
"I12<32>n" "vrand2"
"I12<33>v" "I12_33"
"I12<33>n" "vrand2"
"I12<34>v" "I12_34"
"I12<34>n" "vrand2"
"I12<35>v" "I12_35"
"I12<35>n" "vrand2"
"I12<36>v" "I12_36"
"I12<36>n" "vrand2"
"I12<37>v" "I12_37"
"I12<37>n" "vrand2"
"I12<38>v" "I12_38"
"I12<38>n" "vrand2"
"I12<39>v" "I12_39"
"I12<39>n" "vrand2"
"I12<40>v" "I12_40"
"I12<40>n" "vrand2"
"I12<41>v" "I12_41"
"I12<41>n" "vrand2"
"I12<42>v" "I12_42"
"I12<42>n" "vrand2"
"I12<43>v" "I12_43"
"I12<43>n" "vrand2"
"I12<44>v" "I12_44"
"I12<44>n" "vrand2"
"I12<45>v" "I12_45"
"I12<45>n" "vrand2"
"I12<46>v" "I12_46"
"I12<46>n" "vrand2"
"I12<47>v" "I12_47"
"I12<47>n" "vrand2"
"I12<48>v" "I12_48"
"I12<48>n" "vrand2"
"I12<49>v" "I12_49"
"I12<49>n" "vrand2"
"I12<50>v" "I12_50"
"I12<50>n" "vrand2"
"I12<51>v" "I12_51"
"I12<51>n" "vrand2"
"I12<52>v" "I12_52"
"I12<52>n" "vrand2"
"I12<53>v" "I12_53"
"I12<53>n" "vrand2"
"I12<54>v" "I12_54"
"I12<54>n" "vrand2"
"I12<55>v" "I12_55"
"I12<55>n" "vrand2"
"I12<56>v" "I12_56"
"I12<56>n" "vrand2"
"I12<57>v" "I12_57"
"I12<57>n" "vrand2"
"I12<58>v" "I12_58"
"I12<58>n" "vrand2"
"I12<59>v" "I12_59"
"I12<59>n" "vrand2"
"I12<60>v" "I12_60"
"I12<60>n" "vrand2"
"I12<61>v" "I12_61"
"I12<61>n" "vrand2"
"I12<62>v" "I12_62"
"I12<62>n" "vrand2"
"I12<63>v" "I12_63"
"I12<63>n" "vrand2"
"I12<64>v" "I12_64"
"I12<64>n" "vrand2"
"I12<65>v" "I12_65"
"I12<65>n" "vrand2"
"I12<66>v" "I12_66"
"I12<66>n" "vrand2"
"I12<67>v" "I12_67"
"I12<67>n" "vrand2"
"I12<68>v" "I12_68"
"I12<68>n" "vrand2"
"I12<69>v" "I12_69"
"I12<69>n" "vrand2"
"I12<70>v" "I12_70"
"I12<70>n" "vrand2"
"I12<71>v" "I12_71"
"I12<71>n" "vrand2"
"I12<72>v" "I12_72"
"I12<72>n" "vrand2"
"I12<73>v" "I12_73"
"I12<73>n" "vrand2"
"I12<74>v" "I12_74"
"I12<74>n" "vrand2"
"I12<75>v" "I12_75"
"I12<75>n" "vrand2"
"I12<76>v" "I12_76"
"I12<76>n" "vrand2"
"I12<77>v" "I12_77"
"I12<77>n" "vrand2"
"I12<78>v" "I12_78"
"I12<78>n" "vrand2"
"I12<79>v" "I12_79"
"I12<79>n" "vrand2"
"I12<80>v" "I12_80"
"I12<80>n" "vrand2"
"I12<81>v" "I12_81"
"I12<81>n" "vrand2"
"I12<82>v" "I12_82"
"I12<82>n" "vrand2"
"I12<83>v" "I12_83"
"I12<83>n" "vrand2"
"I12<84>v" "I12_84"
"I12<84>n" "vrand2"
"I12<85>v" "I12_85"
"I12<85>n" "vrand2"
"I12<86>v" "I12_86"
"I12<86>n" "vrand2"
"I12<87>v" "I12_87"
"I12<87>n" "vrand2"
"I12<88>v" "I12_88"
"I12<88>n" "vrand2"
"I12<89>v" "I12_89"
"I12<89>n" "vrand2"
"I12<90>v" "I12_90"
"I12<90>n" "vrand2"
"I12<91>v" "I12_91"
"I12<91>n" "vrand2"
"I12<92>v" "I12_92"
"I12<92>n" "vrand2"
"I12<93>v" "I12_93"
"I12<93>n" "vrand2"
"I12<94>v" "I12_94"
"I12<94>n" "vrand2"
"I12<95>v" "I12_95"
"I12<95>n" "vrand2"
"I12<96>v" "I12_96"
"I12<96>n" "vrand2"
"I12<97>v" "I12_97"
"I12<97>n" "vrand2"
"I12<98>v" "I12_98"
"I12<98>n" "vrand2"
"I12<99>v" "I12_99"
"I12<99>n" "vrand2"
"I12<100>v" "I12_100"
"I12<100>n" "vrand2"
"I12<101>v" "I12_101"
"I12<101>n" "vrand2"
"I12<102>v" "I12_102"
"I12<102>n" "vrand2"
"I12<103>v" "I12_103"
"I12<103>n" "vrand2"
"I12<104>v" "I12_104"
"I12<104>n" "vrand2"
"I12<105>v" "I12_105"
"I12<105>n" "vrand2"
"I12<106>v" "I12_106"
"I12<106>n" "vrand2"
"I12<107>v" "I12_107"
"I12<107>n" "vrand2"
"I12<108>v" "I12_108"
"I12<108>n" "vrand2"
"I12<109>v" "I12_109"
"I12<109>n" "vrand2"
"I12<110>v" "I12_110"
"I12<110>n" "vrand2"
"I12<111>v" "I12_111"
"I12<111>n" "vrand2"
"I12<112>v" "I12_112"
"I12<112>n" "vrand2"
"I12<113>v" "I12_113"
"I12<113>n" "vrand2"
"I12<114>v" "I12_114"
"I12<114>n" "vrand2"
"I12<115>v" "I12_115"
"I12<115>n" "vrand2"
"I12<116>v" "I12_116"
"I12<116>n" "vrand2"
"I12<117>v" "I12_117"
"I12<117>n" "vrand2"
"I12<118>v" "I12_118"
"I12<118>n" "vrand2"
"I12<119>v" "I12_119"
"I12<119>n" "vrand2"
"I12<120>v" "I12_120"
"I12<120>n" "vrand2"
"I12<121>v" "I12_121"
"I12<121>n" "vrand2"
"I12<122>v" "I12_122"
"I12<122>n" "vrand2"
"I12<123>v" "I12_123"
"I12<123>n" "vrand2"
"I12<124>v" "I12_124"
"I12<124>n" "vrand2"
"I12<125>v" "I12_125"
"I12<125>n" "vrand2"
"I12<126>v" "I12_126"
"I12<126>n" "vrand2"
"I12<127>v" "I12_127"
"I12<127>n" "vrand2"
"I12<128>v" "I12_128"
"I12<128>n" "vrand2"
"I12<129>v" "I12_129"
"I12<129>n" "vrand2"
"I12<130>v" "I12_130"
"I12<130>n" "vrand2"
"I12<131>v" "I12_131"
"I12<131>n" "vrand2"
"I12<132>v" "I12_132"
"I12<132>n" "vrand2"
"I12<133>v" "I12_133"
"I12<133>n" "vrand2"
"I12<134>v" "I12_134"
"I12<134>n" "vrand2"
"I12<135>v" "I12_135"
"I12<135>n" "vrand2"
"I12<136>v" "I12_136"
"I12<136>n" "vrand2"
"I12<137>v" "I12_137"
"I12<137>n" "vrand2"
"I12<138>v" "I12_138"
"I12<138>n" "vrand2"
"I12<139>v" "I12_139"
"I12<139>n" "vrand2"
"I12<140>v" "I12_140"
"I12<140>n" "vrand2"
"I12<141>v" "I12_141"
"I12<141>n" "vrand2"
"I12<142>v" "I12_142"
"I12<142>n" "vrand2"
"I12<143>v" "I12_143"
"I12<143>n" "vrand2"
"I12<144>v" "I12_144"
"I12<144>n" "vrand2"
"I12<145>v" "I12_145"
"I12<145>n" "vrand2"
"I12<146>v" "I12_146"
"I12<146>n" "vrand2"
"I12<147>v" "I12_147"
"I12<147>n" "vrand2"
"I12<148>v" "I12_148"
"I12<148>n" "vrand2"
"I12<149>v" "I12_149"
"I12<149>n" "vrand2"
"I12<150>v" "I12_150"
"I12<150>n" "vrand2"
"I12<151>v" "I12_151"
"I12<151>n" "vrand2"
"I12<152>v" "I12_152"
"I12<152>n" "vrand2"
"I12<153>v" "I12_153"
"I12<153>n" "vrand2"
"I12<154>v" "I12_154"
"I12<154>n" "vrand2"
"I12<155>v" "I12_155"
"I12<155>n" "vrand2"
"I12<156>v" "I12_156"
"I12<156>n" "vrand2"
"I12<157>v" "I12_157"
"I12<157>n" "vrand2"
"I12<158>v" "I12_158"
"I12<158>n" "vrand2"
"I12<159>v" "I12_159"
"I12<159>n" "vrand2"
"I12<160>v" "I12_160"
"I12<160>n" "vrand2"
"I12<161>v" "I12_161"
"I12<161>n" "vrand2"
"I12<162>v" "I12_162"
"I12<162>n" "vrand2"
"I12<163>v" "I12_163"
"I12<163>n" "vrand2"
"I12<164>v" "I12_164"
"I12<164>n" "vrand2"
"I12<165>v" "I12_165"
"I12<165>n" "vrand2"
"I12<166>v" "I12_166"
"I12<166>n" "vrand2"
"I12<167>v" "I12_167"
"I12<167>n" "vrand2"
"I12<168>v" "I12_168"
"I12<168>n" "vrand2"
"I12<169>v" "I12_169"
"I12<169>n" "vrand2"
"I12<170>v" "I12_170"
"I12<170>n" "vrand2"
"I12<171>v" "I12_171"
"I12<171>n" "vrand2"
"I12<172>v" "I12_172"
"I12<172>n" "vrand2"
"I12<173>v" "I12_173"
"I12<173>n" "vrand2"
"I12<174>v" "I12_174"
"I12<174>n" "vrand2"
"I12<175>v" "I12_175"
"I12<175>n" "vrand2"
"I12<176>v" "I12_176"
"I12<176>n" "vrand2"
"I12<177>v" "I12_177"
"I12<177>n" "vrand2"
"I12<178>v" "I12_178"
"I12<178>n" "vrand2"
"I12<179>v" "I12_179"
"I12<179>n" "vrand2"
"I12<180>v" "I12_180"
"I12<180>n" "vrand2"
"I12<181>v" "I12_181"
"I12<181>n" "vrand2"
"I12<182>v" "I12_182"
"I12<182>n" "vrand2"
"I12<183>v" "I12_183"
"I12<183>n" "vrand2"
"I12<184>v" "I12_184"
"I12<184>n" "vrand2"
"I12<185>v" "I12_185"
"I12<185>n" "vrand2"
"I12<186>v" "I12_186"
"I12<186>n" "vrand2"
"I12<187>v" "I12_187"
"I12<187>n" "vrand2"
"I12<188>v" "I12_188"
"I12<188>n" "vrand2"
"I12<189>v" "I12_189"
"I12<189>n" "vrand2"
"I12<190>v" "I12_190"
"I12<190>n" "vrand2"
"I12<191>v" "I12_191"
"I12<191>n" "vrand2"
"I12<192>v" "I12_192"
"I12<192>n" "vrand2"
"I12<193>v" "I12_193"
"I12<193>n" "vrand2"
"I12<194>v" "I12_194"
"I12<194>n" "vrand2"
"I12<195>v" "I12_195"
"I12<195>n" "vrand2"
"I12<196>v" "I12_196"
"I12<196>n" "vrand2"
"I12<197>v" "I12_197"
"I12<197>n" "vrand2"
"I12<198>v" "I12_198"
"I12<198>n" "vrand2"
"I12<199>v" "I12_199"
"I12<199>n" "vrand2"
"I12<200>v" "I12_200"
"I12<200>n" "vrand2"
"I12<201>v" "I12_201"
"I12<201>n" "vrand2"
"I12<202>v" "I12_202"
"I12<202>n" "vrand2"
"I12<203>v" "I12_203"
"I12<203>n" "vrand2"
"I12<204>v" "I12_204"
"I12<204>n" "vrand2"
"I12<205>v" "I12_205"
"I12<205>n" "vrand2"
"I12<206>v" "I12_206"
"I12<206>n" "vrand2"
"I12<207>v" "I12_207"
"I12<207>n" "vrand2"
"I12<208>v" "I12_208"
"I12<208>n" "vrand2"
"I12<209>v" "I12_209"
"I12<209>n" "vrand2"
"I12<210>v" "I12_210"
"I12<210>n" "vrand2"
"I12<211>v" "I12_211"
"I12<211>n" "vrand2"
"I12<212>v" "I12_212"
"I12<212>n" "vrand2"
"I12<213>v" "I12_213"
"I12<213>n" "vrand2"
"I12<214>v" "I12_214"
"I12<214>n" "vrand2"
"I12<215>v" "I12_215"
"I12<215>n" "vrand2"
"I12<216>v" "I12_216"
"I12<216>n" "vrand2"
"I12<217>v" "I12_217"
"I12<217>n" "vrand2"
"I12<218>v" "I12_218"
"I12<218>n" "vrand2"
"I12<219>v" "I12_219"
"I12<219>n" "vrand2"
"I12<220>v" "I12_220"
"I12<220>n" "vrand2"
"I12<221>v" "I12_221"
"I12<221>n" "vrand2"
"I12<222>v" "I12_222"
"I12<222>n" "vrand2"
"I12<223>v" "I12_223"
"I12<223>n" "vrand2"
"I12<224>v" "I12_224"
"I12<224>n" "vrand2"
"I12<225>v" "I12_225"
"I12<225>n" "vrand2"
"I12<226>v" "I12_226"
"I12<226>n" "vrand2"
"I12<227>v" "I12_227"
"I12<227>n" "vrand2"
"I12<228>v" "I12_228"
"I12<228>n" "vrand2"
"I12<229>v" "I12_229"
"I12<229>n" "vrand2"
"I12<230>v" "I12_230"
"I12<230>n" "vrand2"
"I12<231>v" "I12_231"
"I12<231>n" "vrand2"
"I12<232>v" "I12_232"
"I12<232>n" "vrand2"
"I12<233>v" "I12_233"
"I12<233>n" "vrand2"
"I12<234>v" "I12_234"
"I12<234>n" "vrand2"
"I12<235>v" "I12_235"
"I12<235>n" "vrand2"
"I12<236>v" "I12_236"
"I12<236>n" "vrand2"
"I12<237>v" "I12_237"
"I12<237>n" "vrand2"
"I12<238>v" "I12_238"
"I12<238>n" "vrand2"
"I12<239>v" "I12_239"
"I12<239>n" "vrand2"
"I12<240>v" "I12_240"
"I12<240>n" "vrand2"
"I12<241>v" "I12_241"
"I12<241>n" "vrand2"
"I12<242>v" "I12_242"
"I12<242>n" "vrand2"
"I12<243>v" "I12_243"
"I12<243>n" "vrand2"
"I12<244>v" "I12_244"
"I12<244>n" "vrand2"
"I12<245>v" "I12_245"
"I12<245>n" "vrand2"
"I12<246>v" "I12_246"
"I12<246>n" "vrand2"
"I12<247>v" "I12_247"
"I12<247>n" "vrand2"
"I12<248>v" "I12_248"
"I12<248>n" "vrand2"
"I12<249>v" "I12_249"
"I12<249>n" "vrand2"
"I12<250>v" "I12_250"
"I12<250>n" "vrand2"
"I12<251>v" "I12_251"
"I12<251>n" "vrand2"
"I12<252>v" "I12_252"
"I12<252>n" "vrand2"
"I12<253>v" "I12_253"
"I12<253>n" "vrand2"
"I12<254>v" "I12_254"
"I12<254>n" "vrand2"
"I12<255>v" "I12_255"
"I12<255>n" "vrand2"
"I12<256>v" "I12_256"
"I12<256>n" "vrand2"
"I12<257>v" "I12_257"
"I12<257>n" "vrand2"
"I12<258>v" "I12_258"
"I12<258>n" "vrand2"
"I12<259>v" "I12_259"
"I12<259>n" "vrand2"
"I12<260>v" "I12_260"
"I12<260>n" "vrand2"
"I12<261>v" "I12_261"
"I12<261>n" "vrand2"
"I12<262>v" "I12_262"
"I12<262>n" "vrand2"
"I12<263>v" "I12_263"
"I12<263>n" "vrand2"
"I12<264>v" "I12_264"
"I12<264>n" "vrand2"
"I12<265>v" "I12_265"
"I12<265>n" "vrand2"
"I12<266>v" "I12_266"
"I12<266>n" "vrand2"
"I12<267>v" "I12_267"
"I12<267>n" "vrand2"
"I12<268>v" "I12_268"
"I12<268>n" "vrand2"
"I12<269>v" "I12_269"
"I12<269>n" "vrand2"
"I12<270>v" "I12_270"
"I12<270>n" "vrand2"
"I12<271>v" "I12_271"
"I12<271>n" "vrand2"
"I12<272>v" "I12_272"
"I12<272>n" "vrand2"
"I12<273>v" "I12_273"
"I12<273>n" "vrand2"
"I12<274>v" "I12_274"
"I12<274>n" "vrand2"
"I12<275>v" "I12_275"
"I12<275>n" "vrand2"
"I12<276>v" "I12_276"
"I12<276>n" "vrand2"
"I12<277>v" "I12_277"
"I12<277>n" "vrand2"
"I12<278>v" "I12_278"
"I12<278>n" "vrand2"
"I12<279>v" "I12_279"
"I12<279>n" "vrand2"
"I12<280>v" "I12_280"
"I12<280>n" "vrand2"
"I12<281>v" "I12_281"
"I12<281>n" "vrand2"
"I12<282>v" "I12_282"
"I12<282>n" "vrand2"
"I12<283>v" "I12_283"
"I12<283>n" "vrand2"
"I12<284>v" "I12_284"
"I12<284>n" "vrand2"
"I12<285>v" "I12_285"
"I12<285>n" "vrand2"
"I12<286>v" "I12_286"
"I12<286>n" "vrand2"
"I12<287>v" "I12_287"
"I12<287>n" "vrand2"
"I12<288>v" "I12_288"
"I12<288>n" "vrand2"
"I12<289>v" "I12_289"
"I12<289>n" "vrand2"
"I12<290>v" "I12_290"
"I12<290>n" "vrand2"
"I12<291>v" "I12_291"
"I12<291>n" "vrand2"
"I12<292>v" "I12_292"
"I12<292>n" "vrand2"
"I12<293>v" "I12_293"
"I12<293>n" "vrand2"
"I12<294>v" "I12_294"
"I12<294>n" "vrand2"
"I12<295>v" "I12_295"
"I12<295>n" "vrand2"
"I12<296>v" "I12_296"
"I12<296>n" "vrand2"
"I12<297>v" "I12_297"
"I12<297>n" "vrand2"
"I12<298>v" "I12_298"
"I12<298>n" "vrand2"
"I12<299>v" "I12_299"
"I12<299>n" "vrand2"
"I12<300>v" "I12_300"
"I12<300>n" "vrand2"
"I12<301>v" "I12_301"
"I12<301>n" "vrand2"
"I12<302>v" "I12_302"
"I12<302>n" "vrand2"
"I12<303>v" "I12_303"
"I12<303>n" "vrand2"
"I12<304>v" "I12_304"
"I12<304>n" "vrand2"
"I12<305>v" "I12_305"
"I12<305>n" "vrand2"
"I12<306>v" "I12_306"
"I12<306>n" "vrand2"
"I12<307>v" "I12_307"
"I12<307>n" "vrand2"
"I12<308>v" "I12_308"
"I12<308>n" "vrand2"
"I12<309>v" "I12_309"
"I12<309>n" "vrand2"
"I12<310>v" "I12_310"
"I12<310>n" "vrand2"
"I12<311>v" "I12_311"
"I12<311>n" "vrand2"
"I12<312>v" "I12_312"
"I12<312>n" "vrand2"
"I12<313>v" "I12_313"
"I12<313>n" "vrand2"
"I12<314>v" "I12_314"
"I12<314>n" "vrand2"
"I12<315>v" "I12_315"
"I12<315>n" "vrand2"
"I12<316>v" "I12_316"
"I12<316>n" "vrand2"
"I12<317>v" "I12_317"
"I12<317>n" "vrand2"
"I12<318>v" "I12_318"
"I12<318>n" "vrand2"
"I12<319>v" "I12_319"
"I12<319>n" "vrand2"
"I12<320>v" "I12_320"
"I12<320>n" "vrand2"
"I12<321>v" "I12_321"
"I12<321>n" "vrand2"
"I12<322>v" "I12_322"
"I12<322>n" "vrand2"
"I12<323>v" "I12_323"
"I12<323>n" "vrand2"
"I12<324>v" "I12_324"
"I12<324>n" "vrand2"
"I12<325>v" "I12_325"
"I12<325>n" "vrand2"
"I12<326>v" "I12_326"
"I12<326>n" "vrand2"
"I12<327>v" "I12_327"
"I12<327>n" "vrand2"
"I12<328>v" "I12_328"
"I12<328>n" "vrand2"
"I12<329>v" "I12_329"
"I12<329>n" "vrand2"
"I12<330>v" "I12_330"
"I12<330>n" "vrand2"
"I12<331>v" "I12_331"
"I12<331>n" "vrand2"
"I12<332>v" "I12_332"
"I12<332>n" "vrand2"
"I12<333>v" "I12_333"
"I12<333>n" "vrand2"
"I12<334>v" "I12_334"
"I12<334>n" "vrand2"
"I12<335>v" "I12_335"
"I12<335>n" "vrand2"
"I12<336>v" "I12_336"
"I12<336>n" "vrand2"
"I12<337>v" "I12_337"
"I12<337>n" "vrand2"
"I12<338>v" "I12_338"
"I12<338>n" "vrand2"
"I12<339>v" "I12_339"
"I12<339>n" "vrand2"
"I12<340>v" "I12_340"
"I12<340>n" "vrand2"
"I12<341>v" "I12_341"
"I12<341>n" "vrand2"
"I12<342>v" "I12_342"
"I12<342>n" "vrand2"
"I12<343>v" "I12_343"
"I12<343>n" "vrand2"
"I12<344>v" "I12_344"
"I12<344>n" "vrand2"
"I12<345>v" "I12_345"
"I12<345>n" "vrand2"
"I12<346>v" "I12_346"
"I12<346>n" "vrand2"
"I12<347>v" "I12_347"
"I12<347>n" "vrand2"
"I12<348>v" "I12_348"
"I12<348>n" "vrand2"
"I12<349>v" "I12_349"
"I12<349>n" "vrand2"
"I12<350>v" "I12_350"
"I12<350>n" "vrand2"
"I12<351>v" "I12_351"
"I12<351>n" "vrand2"
"I12<352>v" "I12_352"
"I12<352>n" "vrand2"
"I12<353>v" "I12_353"
"I12<353>n" "vrand2"
"I12<354>v" "I12_354"
"I12<354>n" "vrand2"
"I12<355>v" "I12_355"
"I12<355>n" "vrand2"
"I12<356>v" "I12_356"
"I12<356>n" "vrand2"
"I12<357>v" "I12_357"
"I12<357>n" "vrand2"
"I12<358>v" "I12_358"
"I12<358>n" "vrand2"
"I12<359>v" "I12_359"
"I12<359>n" "vrand2"
"I12<360>v" "I12_360"
"I12<360>n" "vrand2"
"I12<361>v" "I12_361"
"I12<361>n" "vrand2"
"I12<362>v" "I12_362"
"I12<362>n" "vrand2"
"I12<363>v" "I12_363"
"I12<363>n" "vrand2"
"I12<364>v" "I12_364"
"I12<364>n" "vrand2"
"I12<365>v" "I12_365"
"I12<365>n" "vrand2"
"I12<366>v" "I12_366"
"I12<366>n" "vrand2"
"I12<367>v" "I12_367"
"I12<367>n" "vrand2"
"I12<368>v" "I12_368"
"I12<368>n" "vrand2"
"I12<369>v" "I12_369"
"I12<369>n" "vrand2"
"I12<370>v" "I12_370"
"I12<370>n" "vrand2"
"I12<371>v" "I12_371"
"I12<371>n" "vrand2"
"I12<372>v" "I12_372"
"I12<372>n" "vrand2"
"I12<373>v" "I12_373"
"I12<373>n" "vrand2"
"I12<374>v" "I12_374"
"I12<374>n" "vrand2"
"I12<375>v" "I12_375"
"I12<375>n" "vrand2"
"I12<376>v" "I12_376"
"I12<376>n" "vrand2"
"I12<377>v" "I12_377"
"I12<377>n" "vrand2"
"I12<378>v" "I12_378"
"I12<378>n" "vrand2"
"I12<379>v" "I12_379"
"I12<379>n" "vrand2"
"I12<380>v" "I12_380"
"I12<380>n" "vrand2"
"I12<381>v" "I12_381"
"I12<381>n" "vrand2"
"I12<382>v" "I12_382"
"I12<382>n" "vrand2"
"I12<383>v" "I12_383"
"I12<383>n" "vrand2"
"I12<384>v" "I12_384"
"I12<384>n" "vrand2"
"I12<385>v" "I12_385"
"I12<385>n" "vrand2"
"I12<386>v" "I12_386"
"I12<386>n" "vrand2"
"I12<387>v" "I12_387"
"I12<387>n" "vrand2"
"I12<388>v" "I12_388"
"I12<388>n" "vrand2"
"I12<389>v" "I12_389"
"I12<389>n" "vrand2"
"I12<390>v" "I12_390"
"I12<390>n" "vrand2"
"I12<391>v" "I12_391"
"I12<391>n" "vrand2"
"I12<392>v" "I12_392"
"I12<392>n" "vrand2"
"I12<393>v" "I12_393"
"I12<393>n" "vrand2"
"I12<394>v" "I12_394"
"I12<394>n" "vrand2"
"I12<395>v" "I12_395"
"I12<395>n" "vrand2"
"I12<396>v" "I12_396"
"I12<396>n" "vrand2"
"I12<397>v" "I12_397"
"I12<397>n" "vrand2"
"I12<398>v" "I12_398"
"I12<398>n" "vrand2"
"I12<399>v" "I12_399"
"I12<399>n" "vrand2"
"I12<400>v" "I12_400"
"I12<400>n" "vrand2"
"I12<401>v" "I12_401"
"I12<401>n" "vrand2"
"I12<402>v" "I12_402"
"I12<402>n" "vrand2"
"I12<403>v" "I12_403"
"I12<403>n" "vrand2"
"I12<404>v" "I12_404"
"I12<404>n" "vrand2"
"I12<405>v" "I12_405"
"I12<405>n" "vrand2"
"I12<406>v" "I12_406"
"I12<406>n" "vrand2"
"I12<407>v" "I12_407"
"I12<407>n" "vrand2"
"I12<408>v" "I12_408"
"I12<408>n" "vrand2"
"I12<409>v" "I12_409"
"I12<409>n" "vrand2"
"I12<410>v" "I12_410"
"I12<410>n" "vrand2"
"I12<411>v" "I12_411"
"I12<411>n" "vrand2"
"I12<412>v" "I12_412"
"I12<412>n" "vrand2"
"I12<413>v" "I12_413"
"I12<413>n" "vrand2"
"I12<414>v" "I12_414"
"I12<414>n" "vrand2"
"I12<415>v" "I12_415"
"I12<415>n" "vrand2"
"I12<416>v" "I12_416"
"I12<416>n" "vrand2"
"I12<417>v" "I12_417"
"I12<417>n" "vrand2"
"I12<418>v" "I12_418"
"I12<418>n" "vrand2"
"I12<419>v" "I12_419"
"I12<419>n" "vrand2"
"I12<420>v" "I12_420"
"I12<420>n" "vrand2"
"I12<421>v" "I12_421"
"I12<421>n" "vrand2"
"I12<422>v" "I12_422"
"I12<422>n" "vrand2"
"I12<423>v" "I12_423"
"I12<423>n" "vrand2"
"I12<424>v" "I12_424"
"I12<424>n" "vrand2"
"I12<425>v" "I12_425"
"I12<425>n" "vrand2"
"I12<426>v" "I12_426"
"I12<426>n" "vrand2"
"I12<427>v" "I12_427"
"I12<427>n" "vrand2"
"I12<428>v" "I12_428"
"I12<428>n" "vrand2"
"I12<429>v" "I12_429"
"I12<429>n" "vrand2"
"I12<430>v" "I12_430"
"I12<430>n" "vrand2"
"I12<431>v" "I12_431"
"I12<431>n" "vrand2"
"I12<432>v" "I12_432"
"I12<432>n" "vrand2"
"I12<433>v" "I12_433"
"I12<433>n" "vrand2"
"I12<434>v" "I12_434"
"I12<434>n" "vrand2"
"I12<435>v" "I12_435"
"I12<435>n" "vrand2"
"I12<436>v" "I12_436"
"I12<436>n" "vrand2"
"I12<437>v" "I12_437"
"I12<437>n" "vrand2"
"I12<438>v" "I12_438"
"I12<438>n" "vrand2"
"I12<439>v" "I12_439"
"I12<439>n" "vrand2"
"I12<440>v" "I12_440"
"I12<440>n" "vrand2"
"I12<441>v" "I12_441"
"I12<441>n" "vrand2"
"I12<442>v" "I12_442"
"I12<442>n" "vrand2"
"I12<443>v" "I12_443"
"I12<443>n" "vrand2"
"I12<444>v" "I12_444"
"I12<444>n" "vrand2"
"I12<445>v" "I12_445"
"I12<445>n" "vrand2"
"I12<446>v" "I12_446"
"I12<446>n" "vrand2"
"I12<447>v" "I12_447"
"I12<447>n" "vrand2"
"I12<448>v" "I12_448"
"I12<448>n" "vrand2"
"I12<449>v" "I12_449"
"I12<449>n" "vrand2"
"I12<450>v" "I12_450"
"I12<450>n" "vrand2"
"I12<451>v" "I12_451"
"I12<451>n" "vrand2"
"I12<452>v" "I12_452"
"I12<452>n" "vrand2"
"I12<453>v" "I12_453"
"I12<453>n" "vrand2"
"I12<454>v" "I12_454"
"I12<454>n" "vrand2"
"I12<455>v" "I12_455"
"I12<455>n" "vrand2"
"I12<456>v" "I12_456"
"I12<456>n" "vrand2"
"I12<457>v" "I12_457"
"I12<457>n" "vrand2"
"I12<458>v" "I12_458"
"I12<458>n" "vrand2"
"I12<459>v" "I12_459"
"I12<459>n" "vrand2"
"I12<460>v" "I12_460"
"I12<460>n" "vrand2"
"I12<461>v" "I12_461"
"I12<461>n" "vrand2"
"I12<462>v" "I12_462"
"I12<462>n" "vrand2"
"I12<463>v" "I12_463"
"I12<463>n" "vrand2"
"I12<464>v" "I12_464"
"I12<464>n" "vrand2"
"I12<465>v" "I12_465"
"I12<465>n" "vrand2"
"I12<466>v" "I12_466"
"I12<466>n" "vrand2"
"I12<467>v" "I12_467"
"I12<467>n" "vrand2"
"I12<468>v" "I12_468"
"I12<468>n" "vrand2"
"I12<469>v" "I12_469"
"I12<469>n" "vrand2"
"I12<470>v" "I12_470"
"I12<470>n" "vrand2"
"I12<471>v" "I12_471"
"I12<471>n" "vrand2"
"I12<472>v" "I12_472"
"I12<472>n" "vrand2"
"I12<473>v" "I12_473"
"I12<473>n" "vrand2"
"I12<474>v" "I12_474"
"I12<474>n" "vrand2"
"I12<475>v" "I12_475"
"I12<475>n" "vrand2"
"I12<476>v" "I12_476"
"I12<476>n" "vrand2"
"I12<477>v" "I12_477"
"I12<477>n" "vrand2"
"I12<478>v" "I12_478"
"I12<478>n" "vrand2"
"I12<479>v" "I12_479"
"I12<479>n" "vrand2"
"I12<480>v" "I12_480"
"I12<480>n" "vrand2"
"I12<481>v" "I12_481"
"I12<481>n" "vrand2"
"I12<482>v" "I12_482"
"I12<482>n" "vrand2"
"I12<483>v" "I12_483"
"I12<483>n" "vrand2"
"I12<484>v" "I12_484"
"I12<484>n" "vrand2"
"I12<485>v" "I12_485"
"I12<485>n" "vrand2"
"I12<486>v" "I12_486"
"I12<486>n" "vrand2"
"I12<487>v" "I12_487"
"I12<487>n" "vrand2"
"I12<488>v" "I12_488"
"I12<488>n" "vrand2"
"I12<489>v" "I12_489"
"I12<489>n" "vrand2"
"I12<490>v" "I12_490"
"I12<490>n" "vrand2"
"I12<491>v" "I12_491"
"I12<491>n" "vrand2"
"I12<492>v" "I12_492"
"I12<492>n" "vrand2"
"I12<493>v" "I12_493"
"I12<493>n" "vrand2"
"I12<494>v" "I12_494"
"I12<494>n" "vrand2"
"I12<495>v" "I12_495"
"I12<495>n" "vrand2"
"I12<496>v" "I12_496"
"I12<496>n" "vrand2"
"I12<497>v" "I12_497"
"I12<497>n" "vrand2"
"I12<498>v" "I12_498"
"I12<498>n" "vrand2"
"I12<499>v" "I12_499"
"I12<499>n" "vrand2"
"I12<500>v" "I12_500"
"I12<500>n" "vrand2"
"I12<501>v" "I12_501"
"I12<501>n" "vrand2"
"I12<502>v" "I12_502"
"I12<502>n" "vrand2"
"I12<503>v" "I12_503"
"I12<503>n" "vrand2"
"I12<504>v" "I12_504"
"I12<504>n" "vrand2"
"I12<505>v" "I12_505"
"I12<505>n" "vrand2"
"I12<506>v" "I12_506"
"I12<506>n" "vrand2"
"I12<507>v" "I12_507"
"I12<507>n" "vrand2"
"I12<508>v" "I12_508"
"I12<508>n" "vrand2"
"I12<509>v" "I12_509"
"I12<509>n" "vrand2"
"I12<510>v" "I12_510"
"I12<510>n" "vrand2"
"I12<511>v" "I12_511"
"I12<511>n" "vrand2"
"I12<512>v" "I12_512"
"I12<512>n" "vrand2"
"I12<513>v" "I12_513"
"I12<513>n" "vrand2"
"I12<514>v" "I12_514"
"I12<514>n" "vrand2"
"I12<515>v" "I12_515"
"I12<515>n" "vrand2"
"I12<516>v" "I12_516"
"I12<516>n" "vrand2"
"I12<517>v" "I12_517"
"I12<517>n" "vrand2"
"I12<518>v" "I12_518"
"I12<518>n" "vrand2"
"I12<519>v" "I12_519"
"I12<519>n" "vrand2"
"I12<520>v" "I12_520"
"I12<520>n" "vrand2"
"I12<521>v" "I12_521"
"I12<521>n" "vrand2"
"I12<522>v" "I12_522"
"I12<522>n" "vrand2"
"I12<523>v" "I12_523"
"I12<523>n" "vrand2"
"I12<524>v" "I12_524"
"I12<524>n" "vrand2"
"I12<525>v" "I12_525"
"I12<525>n" "vrand2"
"I12<526>v" "I12_526"
"I12<526>n" "vrand2"
"I12<527>v" "I12_527"
"I12<527>n" "vrand2"
"I12<528>v" "I12_528"
"I12<528>n" "vrand2"
"I12<529>v" "I12_529"
"I12<529>n" "vrand2"
"I12<530>v" "I12_530"
"I12<530>n" "vrand2"
"I12<531>v" "I12_531"
"I12<531>n" "vrand2"
"I12<532>v" "I12_532"
"I12<532>n" "vrand2"
"I12<533>v" "I12_533"
"I12<533>n" "vrand2"
"I12<534>v" "I12_534"
"I12<534>n" "vrand2"
"I12<535>v" "I12_535"
"I12<535>n" "vrand2"
"I12<536>v" "I12_536"
"I12<536>n" "vrand2"
"I12<537>v" "I12_537"
"I12<537>n" "vrand2"
"I12<538>v" "I12_538"
"I12<538>n" "vrand2"
"I12<539>v" "I12_539"
"I12<539>n" "vrand2"
"I12<540>v" "I12_540"
"I12<540>n" "vrand2"
"I12<541>v" "I12_541"
"I12<541>n" "vrand2"
"I12<542>v" "I12_542"
"I12<542>n" "vrand2"
"I12<543>v" "I12_543"
"I12<543>n" "vrand2"
"I12<544>v" "I12_544"
"I12<544>n" "vrand2"
"I12<545>v" "I12_545"
"I12<545>n" "vrand2"
"I12<546>v" "I12_546"
"I12<546>n" "vrand2"
"I12<547>v" "I12_547"
"I12<547>n" "vrand2"
"I12<548>v" "I12_548"
"I12<548>n" "vrand2"
"I12<549>v" "I12_549"
"I12<549>n" "vrand2"
"I12<550>v" "I12_550"
"I12<550>n" "vrand2"
"I12<551>v" "I12_551"
"I12<551>n" "vrand2"
"I12<552>v" "I12_552"
"I12<552>n" "vrand2"
"I12<553>v" "I12_553"
"I12<553>n" "vrand2"
"I12<554>v" "I12_554"
"I12<554>n" "vrand2"
"I12<555>v" "I12_555"
"I12<555>n" "vrand2"
"I12<556>v" "I12_556"
"I12<556>n" "vrand2"
"I12<557>v" "I12_557"
"I12<557>n" "vrand2"
"I12<558>v" "I12_558"
"I12<558>n" "vrand2"
"I12<559>v" "I12_559"
"I12<559>n" "vrand2"
"I12<560>v" "I12_560"
"I12<560>n" "vrand2"
"I12<561>v" "I12_561"
"I12<561>n" "vrand2"
"I12<562>v" "I12_562"
"I12<562>n" "vrand2"
"I12<563>v" "I12_563"
"I12<563>n" "vrand2"
"I12<564>v" "I12_564"
"I12<564>n" "vrand2"
"I12<565>v" "I12_565"
"I12<565>n" "vrand2"
"I12<566>v" "I12_566"
"I12<566>n" "vrand2"
"I12<567>v" "I12_567"
"I12<567>n" "vrand2"
"I12<568>v" "I12_568"
"I12<568>n" "vrand2"
"I12<569>v" "I12_569"
"I12<569>n" "vrand2"
"I12<570>v" "I12_570"
"I12<570>n" "vrand2"
"I12<571>v" "I12_571"
"I12<571>n" "vrand2"
"I12<572>v" "I12_572"
"I12<572>n" "vrand2"
"I12<573>v" "I12_573"
"I12<573>n" "vrand2"
"I12<574>v" "I12_574"
"I12<574>n" "vrand2"
"I12<575>v" "I12_575"
"I12<575>n" "vrand2"
"I12<576>v" "I12_576"
"I12<576>n" "vrand2"
"I12<577>v" "I12_577"
"I12<577>n" "vrand2"
"I12<578>v" "I12_578"
"I12<578>n" "vrand2"
"I12<579>v" "I12_579"
"I12<579>n" "vrand2"
"I12<580>v" "I12_580"
"I12<580>n" "vrand2"
"I12<581>v" "I12_581"
"I12<581>n" "vrand2"
"I12<582>v" "I12_582"
"I12<582>n" "vrand2"
"I12<583>v" "I12_583"
"I12<583>n" "vrand2"
"I12<584>v" "I12_584"
"I12<584>n" "vrand2"
"I12<585>v" "I12_585"
"I12<585>n" "vrand2"
"I12<586>v" "I12_586"
"I12<586>n" "vrand2"
"I12<587>v" "I12_587"
"I12<587>n" "vrand2"
"I12<588>v" "I12_588"
"I12<588>n" "vrand2"
"I12<589>v" "I12_589"
"I12<589>n" "vrand2"
"I12<590>v" "I12_590"
"I12<590>n" "vrand2"
"I12<591>v" "I12_591"
"I12<591>n" "vrand2"
"I12<592>v" "I12_592"
"I12<592>n" "vrand2"
"I12<593>v" "I12_593"
"I12<593>n" "vrand2"
"I12<594>v" "I12_594"
"I12<594>n" "vrand2"
"I12<595>v" "I12_595"
"I12<595>n" "vrand2"
"I12<596>v" "I12_596"
"I12<596>n" "vrand2"
"I12<597>v" "I12_597"
"I12<597>n" "vrand2"
"I12<598>v" "I12_598"
"I12<598>n" "vrand2"
"I12<599>v" "I12_599"
"I12<599>n" "vrand2"
"I12<600>v" "I12_600"
"I12<600>n" "vrand2"
"I12<601>v" "I12_601"
"I12<601>n" "vrand2"
"I12<602>v" "I12_602"
"I12<602>n" "vrand2"
"I12<603>v" "I12_603"
"I12<603>n" "vrand2"
"I12<604>v" "I12_604"
"I12<604>n" "vrand2"
"I12<605>v" "I12_605"
"I12<605>n" "vrand2"
"I12<606>v" "I12_606"
"I12<606>n" "vrand2"
"I12<607>v" "I12_607"
"I12<607>n" "vrand2"
"I12<608>v" "I12_608"
"I12<608>n" "vrand2"
"I12<609>v" "I12_609"
"I12<609>n" "vrand2"
"I12<610>v" "I12_610"
"I12<610>n" "vrand2"
"I12<611>v" "I12_611"
"I12<611>n" "vrand2"
"I12<612>v" "I12_612"
"I12<612>n" "vrand2"
"I12<613>v" "I12_613"
"I12<613>n" "vrand2"
"I12<614>v" "I12_614"
"I12<614>n" "vrand2"
"I12<615>v" "I12_615"
"I12<615>n" "vrand2"
"I12<616>v" "I12_616"
"I12<616>n" "vrand2"
"I12<617>v" "I12_617"
"I12<617>n" "vrand2"
"I12<618>v" "I12_618"
"I12<618>n" "vrand2"
"I12<619>v" "I12_619"
"I12<619>n" "vrand2"
"I12<620>v" "I12_620"
"I12<620>n" "vrand2"
"I12<621>v" "I12_621"
"I12<621>n" "vrand2"
"I12<622>v" "I12_622"
"I12<622>n" "vrand2"
"I12<623>v" "I12_623"
"I12<623>n" "vrand2"
"I12<624>v" "I12_624"
"I12<624>n" "vrand2"
"I12<625>v" "I12_625"
"I12<625>n" "vrand2"
"I12<626>v" "I12_626"
"I12<626>n" "vrand2"
"I12<627>v" "I12_627"
"I12<627>n" "vrand2"
"I12<628>v" "I12_628"
"I12<628>n" "vrand2"
"I12<629>v" "I12_629"
"I12<629>n" "vrand2"
"I12<630>v" "I12_630"
"I12<630>n" "vrand2"
"I12<631>v" "I12_631"
"I12<631>n" "vrand2"
"I12<632>v" "I12_632"
"I12<632>n" "vrand2"
"I12<633>v" "I12_633"
"I12<633>n" "vrand2"
"I12<634>v" "I12_634"
"I12<634>n" "vrand2"
"I12<635>v" "I12_635"
"I12<635>n" "vrand2"
"I12<636>v" "I12_636"
"I12<636>n" "vrand2"
"I12<637>v" "I12_637"
"I12<637>n" "vrand2"
"I12<638>v" "I12_638"
"I12<638>n" "vrand2"
"I12<639>v" "I12_639"
"I12<639>n" "vrand2"
"I12<640>v" "I12_640"
"I12<640>n" "vrand2"
"I12<641>v" "I12_641"
"I12<641>n" "vrand2"
"I12<642>v" "I12_642"
"I12<642>n" "vrand2"
"I12<643>v" "I12_643"
"I12<643>n" "vrand2"
"I12<644>v" "I12_644"
"I12<644>n" "vrand2"
"I12<645>v" "I12_645"
"I12<645>n" "vrand2"
"I12<646>v" "I12_646"
"I12<646>n" "vrand2"
"I12<647>v" "I12_647"
"I12<647>n" "vrand2"
"I12<648>v" "I12_648"
"I12<648>n" "vrand2"
"I12<649>v" "I12_649"
"I12<649>n" "vrand2"
"I12<650>v" "I12_650"
"I12<650>n" "vrand2"
"I12<651>v" "I12_651"
"I12<651>n" "vrand2"
"I12<652>v" "I12_652"
"I12<652>n" "vrand2"
"I12<653>v" "I12_653"
"I12<653>n" "vrand2"
"I12<654>v" "I12_654"
"I12<654>n" "vrand2"
"I12<655>v" "I12_655"
"I12<655>n" "vrand2"
"I12<656>v" "I12_656"
"I12<656>n" "vrand2"
"I12<657>v" "I12_657"
"I12<657>n" "vrand2"
"I12<658>v" "I12_658"
"I12<658>n" "vrand2"
"I12<659>v" "I12_659"
"I12<659>n" "vrand2"
"I12<660>v" "I12_660"
"I12<660>n" "vrand2"
"I12<661>v" "I12_661"
"I12<661>n" "vrand2"
"I12<662>v" "I12_662"
"I12<662>n" "vrand2"
"I12<663>v" "I12_663"
"I12<663>n" "vrand2"
"I12<664>v" "I12_664"
"I12<664>n" "vrand2"
"I12<665>v" "I12_665"
"I12<665>n" "vrand2"
"I12<666>v" "I12_666"
"I12<666>n" "vrand2"
"I12<667>v" "I12_667"
"I12<667>n" "vrand2"
"I12<668>v" "I12_668"
"I12<668>n" "vrand2"
"I12<669>v" "I12_669"
"I12<669>n" "vrand2"
"I12<670>v" "I12_670"
"I12<670>n" "vrand2"
"I12<671>v" "I12_671"
"I12<671>n" "vrand2"
"I12<672>v" "I12_672"
"I12<672>n" "vrand2"
"I12<673>v" "I12_673"
"I12<673>n" "vrand2"
"I12<674>v" "I12_674"
"I12<674>n" "vrand2"
"I12<675>v" "I12_675"
"I12<675>n" "vrand2"
"I12<676>v" "I12_676"
"I12<676>n" "vrand2"
"I12<677>v" "I12_677"
"I12<677>n" "vrand2"
"I12<678>v" "I12_678"
"I12<678>n" "vrand2"
"I12<679>v" "I12_679"
"I12<679>n" "vrand2"
"I12<680>v" "I12_680"
"I12<680>n" "vrand2"
"I12<681>v" "I12_681"
"I12<681>n" "vrand2"
"I12<682>v" "I12_682"
"I12<682>n" "vrand2"
"I12<683>v" "I12_683"
"I12<683>n" "vrand2"
"I12<684>v" "I12_684"
"I12<684>n" "vrand2"
"I12<685>v" "I12_685"
"I12<685>n" "vrand2"
"I12<686>v" "I12_686"
"I12<686>n" "vrand2"
"I12<687>v" "I12_687"
"I12<687>n" "vrand2"
"I12<688>v" "I12_688"
"I12<688>n" "vrand2"
"I12<689>v" "I12_689"
"I12<689>n" "vrand2"
"I12<690>v" "I12_690"
"I12<690>n" "vrand2"
"I12<691>v" "I12_691"
"I12<691>n" "vrand2"
"I12<692>v" "I12_692"
"I12<692>n" "vrand2"
"I12<693>v" "I12_693"
"I12<693>n" "vrand2"
"I12<694>v" "I12_694"
"I12<694>n" "vrand2"
"I12<695>v" "I12_695"
"I12<695>n" "vrand2"
"I12<696>v" "I12_696"
"I12<696>n" "vrand2"
"I12<697>v" "I12_697"
"I12<697>n" "vrand2"
"I12<698>v" "I12_698"
"I12<698>n" "vrand2"
"I12<699>v" "I12_699"
"I12<699>n" "vrand2"
"I12<700>v" "I12_700"
"I12<700>n" "vrand2"
"I12<701>v" "I12_701"
"I12<701>n" "vrand2"
"I12<702>v" "I12_702"
"I12<702>n" "vrand2"
"I12<703>v" "I12_703"
"I12<703>n" "vrand2"
"I12<704>v" "I12_704"
"I12<704>n" "vrand2"
"I12<705>v" "I12_705"