HEADER
"PSFversion" "1.00"
"vc<1>v" "vc_1"
"vc<2>v" "vc_2"
"vc<3>v" "vc_3"
"vc<4>v" "vc_4"
"vc<5>v" "vc_5"
"vc<6>v" "vc_6"
"vc<7>v" "vc_7"
"vc<8>v" "vc_8"
"vc<9>v" "vc_9"
"vc<10>v" "vc_10"
"vc<11>v" "vc_11"
"vc<12>v" "vc_12"
"vc<13>v" "vc_13"
"vc<14>v" "vc_14"
"vc<15>v" "vc_15"
"vc<16>v" "vc_16"
"Rp<1>v" "Rp_1"
"Rp<2>v" "Rp_2"
"Rp<3>v" "Rp_3"
"Rp<4>v" "Rp_4"
"Rp<5>v" "Rp_5"
"Rp<6>v" "Rp_6"
"Rp<7>v" "Rp_7"
"Rp<8>v" "Rp_8"
"Rp<9>v" "Rp_9"
"Rp<10>v" "Rp_10"
"Rp<11>v" "Rp_11"
"Rp<12>v" "Rp_12"
"Rp<13>v" "Rp_13"
"Rp<14>v" "Rp_14"
"Rp<15>v" "Rp_15"
"Rp<16>v" "Rp_16"
"Rp<17>v" "Rp_17"
"Rp<18>v" "Rp_18"
"Rp<19>v" "Rp_19"
"Rp<20>v" "Rp_20"
"Rp<21>v" "Rp_21"
"Rp<22>v" "Rp_22"
"Rp<23>v" "Rp_23"
"Rp<24>v" "Rp_24"
"Rp<25>v" "Rp_25"
"Rp<26>v" "Rp_26"
"Rp<27>v" "Rp_27"
"Rp<28>v" "Rp_28"
"Rp<29>v" "Rp_29"
"Rp<30>v" "Rp_30"
"Rp<31>v" "Rp_31"
"Rp<32>v" "Rp_32"
"Rp<33>v" "Rp_33"
"Rp<34>v" "Rp_34"
"Rp<35>v" "Rp_35"
"Rp<36>v" "Rp_36"
"Rp<37>v" "Rp_37"
"Rp<38>v" "Rp_38"
"Rp<39>v" "Rp_39"
"Rp<40>v" "Rp_40"
"Rp<41>v" "Rp_41"
"Rp<42>v" "Rp_42"
"Rp<43>v" "Rp_43"
"Rp<44>v" "Rp_44"
"Rp<45>v" "Rp_45"
"Rp<46>v" "Rp_46"
"Rp<47>v" "Rp_47"
"Rp<48>v" "Rp_48"
"Rp<49>v" "Rp_49"
"Rp<50>v" "Rp_50"
"Rp<51>v" "Rp_51"
"Rp<52>v" "Rp_52"
"Rp<53>v" "Rp_53"
"Rp<54>v" "Rp_54"
"Rp<55>v" "Rp_55"
"Rp<56>v" "Rp_56"
"Rp<57>v" "Rp_57"
"Rp<58>v" "Rp_58"
"Rp<59>v" "Rp_59"
"Rp<60>v" "Rp_60"
"Rp<61>v" "Rp_61"
"Rp<62>v" "Rp_62"
"Rp<63>v" "Rp_63"
"Rp<64>v" "Rp_64"
"Rp<65>v" "Rp_65"
"Rp<66>v" "Rp_66"
"Rp<67>v" "Rp_67"
"Rp<68>v" "Rp_68"
"Rp<69>v" "Rp_69"
"Rp<70>v" "Rp_70"
"Rp<71>v" "Rp_71"
"Rp<72>v" "Rp_72"
"Rp<73>v" "Rp_73"
"Rp<74>v" "Rp_74"
"Rp<75>v" "Rp_75"
"Rp<76>v" "Rp_76"
"Rp<77>v" "Rp_77"
"Rp<78>v" "Rp_78"
"Rp<79>v" "Rp_79"
"Rp<80>v" "Rp_80"
"Rp<81>v" "Rp_81"
"Rp<82>v" "Rp_82"
"Rp<83>v" "Rp_83"
"Rp<84>v" "Rp_84"
"Rp<85>v" "Rp_85"
"Rp<86>v" "Rp_86"
"Rp<87>v" "Rp_87"
"Rp<88>v" "Rp_88"
"Rp<89>v" "Rp_89"
"Rp<90>v" "Rp_90"
"Rp<91>v" "Rp_91"
"Rp<92>v" "Rp_92"
"Rp<93>v" "Rp_93"
"Rp<94>v" "Rp_94"
"Rp<95>v" "Rp_95"
"Rp<96>v" "Rp_96"
"Rp<97>v" "Rp_97"
"Rp<98>v" "Rp_98"
"Rp<99>v" "Rp_99"
"Rp<100>v" "Rp_100"
"Rp<101>v" "Rp_101"
"Rp<102>v" "Rp_102"
"Rp<103>v" "Rp_103"
"Rp<104>v" "Rp_104"
"Rp<105>v" "Rp_105"
"Rp<106>v" "Rp_106"
"Rp<107>v" "Rp_107"
"Rp<108>v" "Rp_108"
"Rp<109>v" "Rp_109"
"Rp<110>v" "Rp_110"
"Rp<111>v" "Rp_111"
"Rp<112>v" "Rp_112"
"Rp<113>v" "Rp_113"
"Rp<114>v" "Rp_114"
"Rp<115>v" "Rp_115"
"Rp<116>v" "Rp_116"
"Rp<117>v" "Rp_117"
"Rp<118>v" "Rp_118"
"Rp<119>v" "Rp_119"
"Rp<120>v" "Rp_120"
"Rp<121>v" "Rp_121"
"Rp<122>v" "Rp_122"
"Rp<123>v" "Rp_123"
"Rp<124>v" "Rp_124"
"Rp<125>v" "Rp_125"
"Rp<126>v" "Rp_126"
"Rp<127>v" "Rp_127"
"Rp<128>v" "Rp_128"
"Rp<129>v" "Rp_129"
"Rp<130>v" "Rp_130"
"Rp<131>v" "Rp_131"
"Rp<132>v" "Rp_132"
"Rp<133>v" "Rp_133"
"Rp<134>v" "Rp_134"
"Rp<135>v" "Rp_135"
"Rp<136>v" "Rp_136"
"Rp<137>v" "Rp_137"
"Rp<138>v" "Rp_138"
"Rp<139>v" "Rp_139"
"Rp<140>v" "Rp_140"
"Rp<141>v" "Rp_141"
"Rp<142>v" "Rp_142"
"Rp<143>v" "Rp_143"
"Rp<144>v" "Rp_144"
"Rp<145>v" "Rp_145"
"Rp<146>v" "Rp_146"
"Rp<147>v" "Rp_147"
"Rp<148>v" "Rp_148"
"Rp<149>v" "Rp_149"
"Rp<150>v" "Rp_150"
"Rp<151>v" "Rp_151"
"Rp<152>v" "Rp_152"
"Rp<153>v" "Rp_153"
"Rp<154>v" "Rp_154"
"Rp<155>v" "Rp_155"
"Rp<156>v" "Rp_156"
"Rp<157>v" "Rp_157"
"Rp<158>v" "Rp_158"
"Rp<159>v" "Rp_159"
"Rp<160>v" "Rp_160"
"Rp<161>v" "Rp_161"
"Rp<162>v" "Rp_162"
"Rp<163>v" "Rp_163"
"Rp<164>v" "Rp_164"
"Rp<165>v" "Rp_165"
"Rp<166>v" "Rp_166"
"Rp<167>v" "Rp_167"
"Rp<168>v" "Rp_168"
"Rp<169>v" "Rp_169"
"Rp<170>v" "Rp_170"
"Rp<171>v" "Rp_171"
"Rp<172>v" "Rp_172"
"Rp<173>v" "Rp_173"
"Rp<174>v" "Rp_174"
"Rp<175>v" "Rp_175"
"Rp<176>v" "Rp_176"
"Rp<177>v" "Rp_177"
"Rp<178>v" "Rp_178"
"Rp<179>v" "Rp_179"
"Rp<180>v" "Rp_180"
"Rp<181>v" "Rp_181"
"Rp<182>v" "Rp_182"
"Rp<183>v" "Rp_183"
"Rp<184>v" "Rp_184"
"Rp<185>v" "Rp_185"
"Rp<186>v" "Rp_186"
"Rp<187>v" "Rp_187"
"Rp<188>v" "Rp_188"
"Rp<189>v" "Rp_189"
"Rp<190>v" "Rp_190"
"Rp<191>v" "Rp_191"
"Rp<192>v" "Rp_192"
"Rp<193>v" "Rp_193"
"Rp<194>v" "Rp_194"
"Rp<195>v" "Rp_195"
"Rp<196>v" "Rp_196"
"Rp<197>v" "Rp_197"
"Rp<198>v" "Rp_198"
"Rp<199>v" "Rp_199"
"Rp<200>v" "Rp_200"
"Rp<201>v" "Rp_201"
"Rp<202>v" "Rp_202"
"Rp<203>v" "Rp_203"
"Rp<204>v" "Rp_204"
"Rp<205>v" "Rp_205"
"Rp<206>v" "Rp_206"
"Rp<207>v" "Rp_207"
"Rp<208>v" "Rp_208"
"Rp<209>v" "Rp_209"
"Rp<210>v" "Rp_210"
"Rp<211>v" "Rp_211"
"Rp<212>v" "Rp_212"
"Rp<213>v" "Rp_213"
"Rp<214>v" "Rp_214"
"Rp<215>v" "Rp_215"
"Rp<216>v" "Rp_216"
"Rp<217>v" "Rp_217"
"Rp<218>v" "Rp_218"
"Rp<219>v" "Rp_219"
"Rp<220>v" "Rp_220"
"Rp<221>v" "Rp_221"
"Rp<222>v" "Rp_222"
"Rp<223>v" "Rp_223"
"Rp<224>v" "Rp_224"
"Rp<225>v" "Rp_225"
"Rp<226>v" "Rp_226"
"Rp<227>v" "Rp_227"
"Rp<228>v" "Rp_228"
"Rp<229>v" "Rp_229"
"Rp<230>v" "Rp_230"
"Rp<231>v" "Rp_231"
"Rp<232>v" "Rp_232"
"Rp<233>v" "Rp_233"
"Rp<234>v" "Rp_234"
"Rp<235>v" "Rp_235"
"Rp<236>v" "Rp_236"
"Rp<237>v" "Rp_237"
"Rp<238>v" "Rp_238"
"Rp<239>v" "Rp_239"
"Rp<240>v" "Rp_240"
"Rp<241>v" "Rp_241"
"Rp<242>v" "Rp_242"
"Rp<243>v" "Rp_243"
"Rp<244>v" "Rp_244"
"Rp<245>v" "Rp_245"
"Rp<246>v" "Rp_246"
"Rp<247>v" "Rp_247"
"Rp<248>v" "Rp_248"
"Rp<249>v" "Rp_249"
"Rp<250>v" "Rp_250"
"Rp<251>v" "Rp_251"
"Rp<252>v" "Rp_252"
"Rp<253>v" "Rp_253"
"Rp<254>v" "Rp_254"
"Rp<255>v" "Rp_255"
"Rp<256>v" "Rp_256"
"Rp<257>v" "Rp_257"
"Rp<258>v" "Rp_258"
"Rp<259>v" "Rp_259"
"Rp<260>v" "Rp_260"
"Rp<261>v" "Rp_261"
"Rp<262>v" "Rp_262"
"Rp<263>v" "Rp_263"
"Rp<264>v" "Rp_264"
"Rp<265>v" "Rp_265"
"Rp<266>v" "Rp_266"
"Rp<267>v" "Rp_267"
"Rp<268>v" "Rp_268"
"Rp<269>v" "Rp_269"
"Rp<270>v" "Rp_270"
"Rp<271>v" "Rp_271"
"Rp<272>v" "Rp_272"
"Rp<273>v" "Rp_273"
"Rp<274>v" "Rp_274"
"Rp<275>v" "Rp_275"
"Rp<276>v" "Rp_276"
"Rp<277>v" "Rp_277"
"Rp<278>v" "Rp_278"
"Rp<279>v" "Rp_279"
"Rp<280>v" "Rp_280"
"Rp<281>v" "Rp_281"
"Rp<282>v" "Rp_282"
"Rp<283>v" "Rp_283"
"Rp<284>v" "Rp_284"
"Rp<285>v" "Rp_285"
"Rp<286>v" "Rp_286"
"Rp<287>v" "Rp_287"
"Rp<288>v" "Rp_288"
"Rp<289>v" "Rp_289"
"Rp<290>v" "Rp_290"
"Rp<291>v" "Rp_291"
"Rp<292>v" "Rp_292"
"Rp<293>v" "Rp_293"
"Rp<294>v" "Rp_294"
"Rp<295>v" "Rp_295"
"Rp<296>v" "Rp_296"
"Rp<297>v" "Rp_297"
"Rp<298>v" "Rp_298"
"Rp<299>v" "Rp_299"
"Rp<300>v" "Rp_300"
"Rp<301>v" "Rp_301"
"Rp<302>v" "Rp_302"
"Rp<303>v" "Rp_303"
"Rp<304>v" "Rp_304"
"Rp<305>v" "Rp_305"
"Rp<306>v" "Rp_306"
"Rp<307>v" "Rp_307"
"Rp<308>v" "Rp_308"
"Rp<309>v" "Rp_309"
"Rp<310>v" "Rp_310"
"Rp<311>v" "Rp_311"
"Rp<312>v" "Rp_312"
"Rp<313>v" "Rp_313"
"Rp<314>v" "Rp_314"
"Rp<315>v" "Rp_315"
"Rp<316>v" "Rp_316"
"Rp<317>v" "Rp_317"
"Rp<318>v" "Rp_318"
"Rp<319>v" "Rp_319"
"Rp<320>v" "Rp_320"
"Rp<321>v" "Rp_321"
"Rp<322>v" "Rp_322"
"Rp<323>v" "Rp_323"
"Rp<324>v" "Rp_324"
"Rp<325>v" "Rp_325"
"Rp<326>v" "Rp_326"
"Rp<327>v" "Rp_327"
"Rp<328>v" "Rp_328"
"Rp<329>v" "Rp_329"
"Rp<330>v" "Rp_330"
"Rp<331>v" "Rp_331"
"Rp<332>v" "Rp_332"
"Rp<333>v" "Rp_333"
"Rp<334>v" "Rp_334"
"Rp<335>v" "Rp_335"
"Rp<336>v" "Rp_336"
"Rp<337>v" "Rp_337"
"Rp<338>v" "Rp_338"
"Rp<339>v" "Rp_339"
"Rp<340>v" "Rp_340"
"Rp<341>v" "Rp_341"
"Rp<342>v" "Rp_342"
"Rp<343>v" "Rp_343"
"Rp<344>v" "Rp_344"
"Rp<345>v" "Rp_345"
"Rp<346>v" "Rp_346"
"Rp<347>v" "Rp_347"
"Rp<348>v" "Rp_348"
"Rp<349>v" "Rp_349"
"Rp<350>v" "Rp_350"
"Rp<351>v" "Rp_351"
"Rp<352>v" "Rp_352"
"Rp<353>v" "Rp_353"
"Rp<354>v" "Rp_354"
"Rp<355>v" "Rp_355"
"Rp<356>v" "Rp_356"
"Rp<357>v" "Rp_357"
"Rp<358>v" "Rp_358"
"Rp<359>v" "Rp_359"
"Rp<360>v" "Rp_360"
"Rp<361>v" "Rp_361"
"Rp<362>v" "Rp_362"
"Rp<363>v" "Rp_363"
"Rp<364>v" "Rp_364"
"Rp<365>v" "Rp_365"
"Rp<366>v" "Rp_366"
"Rp<367>v" "Rp_367"
"Rp<368>v" "Rp_368"
"Rp<369>v" "Rp_369"
"Rp<370>v" "Rp_370"
"Rp<371>v" "Rp_371"
"Rp<372>v" "Rp_372"
"Rp<373>v" "Rp_373"
"Rp<374>v" "Rp_374"
"Rp<375>v" "Rp_375"
"Rp<376>v" "Rp_376"
"Rp<377>v" "Rp_377"
"Rp<378>v" "Rp_378"
"Rp<379>v" "Rp_379"
"Rp<380>v" "Rp_380"
"Rp<381>v" "Rp_381"
"Rp<382>v" "Rp_382"
"Rp<383>v" "Rp_383"
"Rp<384>v" "Rp_384"
"Rp<385>v" "Rp_385"
"Rp<386>v" "Rp_386"
"Rp<387>v" "Rp_387"
"Rp<388>v" "Rp_388"
"Rp<389>v" "Rp_389"
"Rp<390>v" "Rp_390"
"Rp<391>v" "Rp_391"
"Rp<392>v" "Rp_392"
"Rp<393>v" "Rp_393"
"Rp<394>v" "Rp_394"
"Rp<395>v" "Rp_395"
"Rp<396>v" "Rp_396"
"Rp<397>v" "Rp_397"
"Rp<398>v" "Rp_398"
"Rp<399>v" "Rp_399"
"Rp<400>v" "Rp_400"
"Rp<401>v" "Rp_401"
"Rp<402>v" "Rp_402"
"Rp<403>v" "Rp_403"
"Rp<404>v" "Rp_404"
"Rp<405>v" "Rp_405"
"Rp<406>v" "Rp_406"
"Rp<407>v" "Rp_407"
"Rp<408>v" "Rp_408"
"Rp<409>v" "Rp_409"
"Rp<410>v" "Rp_410"
"Rp<411>v" "Rp_411"
"Rp<412>v" "Rp_412"
"Rp<413>v" "Rp_413"
"Rp<414>v" "Rp_414"
"Rp<415>v" "Rp_415"
"Rp<416>v" "Rp_416"
"Rp<417>v" "Rp_417"
"Rp<418>v" "Rp_418"
"Rp<419>v" "Rp_419"
"Rp<420>v" "Rp_420"
"Rp<421>v" "Rp_421"
"Rp<422>v" "Rp_422"
"Rp<423>v" "Rp_423"
"Rp<424>v" "Rp_424"
"Rp<425>v" "Rp_425"
"Rp<426>v" "Rp_426"
"Rp<427>v" "Rp_427"
"Rp<428>v" "Rp_428"
"Rp<429>v" "Rp_429"
"Rp<430>v" "Rp_430"
"Rp<431>v" "Rp_431"
"Rp<432>v" "Rp_432"
"Rp<433>v" "Rp_433"
"Rp<434>v" "Rp_434"
"Rp<435>v" "Rp_435"
"Rp<436>v" "Rp_436"
"Rp<437>v" "Rp_437"
"Rp<438>v" "Rp_438"
"Rp<439>v" "Rp_439"
"Rp<440>v" "Rp_440"
"Rp<441>v" "Rp_441"
"Rp<442>v" "Rp_442"
"Rp<443>v" "Rp_443"
"Rp<444>v" "Rp_444"
"Rp<445>v" "Rp_445"
"Rp<446>v" "Rp_446"
"Rp<447>v" "Rp_447"
"Rp<448>v" "Rp_448"
"Rp<449>v" "Rp_449"
"Rp<450>v" "Rp_450"
"Rp<451>v" "Rp_451"
"Rp<452>v" "Rp_452"
"Rp<453>v" "Rp_453"
"Rp<454>v" "Rp_454"
"Rp<455>v" "Rp_455"
"Rp<456>v" "Rp_456"
"Rp<457>v" "Rp_457"
"Rp<458>v" "Rp_458"
"Rp<459>v" "Rp_459"
"Rp<460>v" "Rp_460"
"Rp<461>v" "Rp_461"
"Rp<462>v" "Rp_462"
"Rp<463>v" "Rp_463"
"Rp<464>v" "Rp_464"
"Rp<465>v" "Rp_465"
"Rp<466>v" "Rp_466"
"Rp<467>v" "Rp_467"
"Rp<468>v" "Rp_468"
"Rp<469>v" "Rp_469"
"Rp<470>v" "Rp_470"
"Rp<471>v" "Rp_471"
"Rp<472>v" "Rp_472"
"Rp<473>v" "Rp_473"
"Rp<474>v" "Rp_474"
"Rp<475>v" "Rp_475"
"Rp<476>v" "Rp_476"
"Rp<477>v" "Rp_477"
"Rp<478>v" "Rp_478"
"Rp<479>v" "Rp_479"
"Rp<480>v" "Rp_480"
"Rp<481>v" "Rp_481"
"Rp<482>v" "Rp_482"
"Rp<483>v" "Rp_483"
"Rp<484>v" "Rp_484"
"Rp<485>v" "Rp_485"
"Rp<486>v" "Rp_486"
"Rp<487>v" "Rp_487"
"Rp<488>v" "Rp_488"
"Rp<489>v" "Rp_489"
"Rp<490>v" "Rp_490"
"Rp<491>v" "Rp_491"
"Rp<492>v" "Rp_492"
"Rp<493>v" "Rp_493"
"Rp<494>v" "Rp_494"
"Rp<495>v" "Rp_495"
"Rp<496>v" "Rp_496"
"Rp<497>v" "Rp_497"
"Rp<498>v" "Rp_498"
"Rp<499>v" "Rp_499"
"Rp<500>v" "Rp_500"
"Rp<501>v" "Rp_501"
"Rp<502>v" "Rp_502"
"Rp<503>v" "Rp_503"
"Rp<504>v" "Rp_504"
"Rp<505>v" "Rp_505"
"Rp<506>v" "Rp_506"
"Rp<507>v" "Rp_507"
"Rp<508>v" "Rp_508"
"Rp<509>v" "Rp_509"
"Rp<510>v" "Rp_510"
"Rp<511>v" "Rp_511"
"Rp<512>v" "Rp_512"
"Rp<513>v" "Rp_513"
"Rp<514>v" "Rp_514"
"Rp<515>v" "Rp_515"
"Rp<516>v" "Rp_516"
"Rp<517>v" "Rp_517"
"Rp<518>v" "Rp_518"
"Rp<519>v" "Rp_519"
"Rp<520>v" "Rp_520"
"Rp<521>v" "Rp_521"
"Rp<522>v" "Rp_522"
"Rp<523>v" "Rp_523"
"Rp<524>v" "Rp_524"
"Rp<525>v" "Rp_525"
"Rp<526>v" "Rp_526"
"Rp<527>v" "Rp_527"
"Rp<528>v" "Rp_528"
"Rp<529>v" "Rp_529"
"Rp<530>v" "Rp_530"
"Rp<531>v" "Rp_531"
"Rp<532>v" "Rp_532"
"Rp<533>v" "Rp_533"
"Rp<534>v" "Rp_534"
"Rp<535>v" "Rp_535"
"Rp<536>v" "Rp_536"
"Rp<537>v" "Rp_537"
"Rp<538>v" "Rp_538"
"Rp<539>v" "Rp_539"
"Rp<540>v" "Rp_540"
"Rp<541>v" "Rp_541"
"Rp<542>v" "Rp_542"
"Rp<543>v" "Rp_543"
"Rp<544>v" "Rp_544"
"Rp<545>v" "Rp_545"
"Rp<546>v" "Rp_546"
"Rp<547>v" "Rp_547"
"Rp<548>v" "Rp_548"
"Rp<549>v" "Rp_549"
"Rp<550>v" "Rp_550"
"Rp<551>v" "Rp_551"
"Rp<552>v" "Rp_552"
"Rp<553>v" "Rp_553"
"Rp<554>v" "Rp_554"
"Rp<555>v" "Rp_555"
"Rp<556>v" "Rp_556"
"Rp<557>v" "Rp_557"
"Rp<558>v" "Rp_558"
"Rp<559>v" "Rp_559"
"Rp<560>v" "Rp_560"
"Rp<561>v" "Rp_561"
"Rp<562>v" "Rp_562"
"Rp<563>v" "Rp_563"
"Rp<564>v" "Rp_564"
"Rp<565>v" "Rp_565"
"Rp<566>v" "Rp_566"
"Rp<567>v" "Rp_567"
"Rp<568>v" "Rp_568"
"Rp<569>v" "Rp_569"
"Rp<570>v" "Rp_570"
"Rp<571>v" "Rp_571"
"Rp<572>v" "Rp_572"
"Rp<573>v" "Rp_573"
"Rp<574>v" "Rp_574"
"Rp<575>v" "Rp_575"
"Rp<576>v" "Rp_576"
"Rp<577>v" "Rp_577"
"Rp<578>v" "Rp_578"
"Rp<579>v" "Rp_579"
"Rp<580>v" "Rp_580"
"Rp<581>v" "Rp_581"
"Rp<582>v" "Rp_582"
"Rp<583>v" "Rp_583"
"Rp<584>v" "Rp_584"
"Rp<585>v" "Rp_585"
"Rp<586>v" "Rp_586"
"Rp<587>v" "Rp_587"
"Rp<588>v" "Rp_588"
"Rp<589>v" "Rp_589"
"Rp<590>v" "Rp_590"
"Rp<591>v" "Rp_591"
"Rp<592>v" "Rp_592"
"Rp<593>v" "Rp_593"
"Rp<594>v" "Rp_594"
"Rp<595>v" "Rp_595"
"Rp<596>v" "Rp_596"
"Rp<597>v" "Rp_597"
"Rp<598>v" "Rp_598"
"Rp<599>v" "Rp_599"
"Rp<600>v" "Rp_600"
"Rp<601>v" "Rp_601"
"Rp<602>v" "Rp_602"
"Rp<603>v" "Rp_603"
"Rp<604>v" "Rp_604"
"Rp<605>v" "Rp_605"
"Rp<606>v" "Rp_606"
"Rp<607>v" "Rp_607"
"Rp<608>v" "Rp_608"
"Rp<609>v" "Rp_609"
"Rp<610>v" "Rp_610"
"Rp<611>v" "Rp_611"
"Rp<612>v" "Rp_612"
"Rp<613>v" "Rp_613"
"Rp<614>v" "Rp_614"
"Rp<615>v" "Rp_615"
"Rp<616>v" "Rp_616"
"Rp<617>v" "Rp_617"
"Rp<618>v" "Rp_618"
"Rp<619>v" "Rp_619"
"Rp<620>v" "Rp_620"
"Rp<621>v" "Rp_621"
"Rp<622>v" "Rp_622"
"Rp<623>v" "Rp_623"
"Rp<624>v" "Rp_624"
"Rp<625>v" "Rp_625"
"Rp<626>v" "Rp_626"
"Rp<627>v" "Rp_627"
"Rp<628>v" "Rp_628"
"Rp<629>v" "Rp_629"
"Rp<630>v" "Rp_630"
"Rp<631>v" "Rp_631"
"Rp<632>v" "Rp_632"
"Rp<633>v" "Rp_633"
"Rp<634>v" "Rp_634"
"Rp<635>v" "Rp_635"
"Rp<636>v" "Rp_636"
"Rp<637>v" "Rp_637"
"Rp<638>v" "Rp_638"
"Rp<639>v" "Rp_639"
"Rp<640>v" "Rp_640"
"Rp<641>v" "Rp_641"
"Rp<642>v" "Rp_642"
"Rp<643>v" "Rp_643"
"Rp<644>v" "Rp_644"
"Rp<645>v" "Rp_645"
"Rp<646>v" "Rp_646"
"Rp<647>v" "Rp_647"
"Rp<648>v" "Rp_648"
"Rp<649>v" "Rp_649"
"Rp<650>v" "Rp_650"
"Rp<651>v" "Rp_651"
"Rp<652>v" "Rp_652"
"Rp<653>v" "Rp_653"
"Rp<654>v" "Rp_654"
"Rp<655>v" "Rp_655"
"Rp<656>v" "Rp_656"
"Rp<657>v" "Rp_657"
"Rp<658>v" "Rp_658"
"Rp<659>v" "Rp_659"
"Rp<660>v" "Rp_660"
"Rp<661>v" "Rp_661"
"Rp<662>v" "Rp_662"
"Rp<663>v" "Rp_663"
"Rp<664>v" "Rp_664"
"Rp<665>v" "Rp_665"
"Rp<666>v" "Rp_666"
"Rp<667>v" "Rp_667"
"Rp<668>v" "Rp_668"
"Rp<669>v" "Rp_669"
"Rp<670>v" "Rp_670"
"Rp<671>v" "Rp_671"
"Rp<672>v" "Rp_672"
"Rp<673>v" "Rp_673"
"Rp<674>v" "Rp_674"
"Rp<675>v" "Rp_675"
"Rp<676>v" "Rp_676"
"Rp<677>v" "Rp_677"
"Rp<678>v" "Rp_678"
"Rp<679>v" "Rp_679"
"Rp<680>v" "Rp_680"
"Rp<681>v" "Rp_681"
"Rp<682>v" "Rp_682"
"Rp<683>v" "Rp_683"
"Rp<684>v" "Rp_684"
"Rp<685>v" "Rp_685"
"Rp<686>v" "Rp_686"
"Rp<687>v" "Rp_687"
"Rp<688>v" "Rp_688"
"Rp<689>v" "Rp_689"
"Rp<690>v" "Rp_690"
"Rp<691>v" "Rp_691"
"Rp<692>v" "Rp_692"
"Rp<693>v" "Rp_693"
"Rp<694>v" "Rp_694"
"Rp<695>v" "Rp_695"
"Rp<696>v" "Rp_696"
"Rp<697>v" "Rp_697"
"Rp<698>v" "Rp_698"
"Rp<699>v" "Rp_699"
"Rp<700>v" "Rp_700"
"Rp<701>v" "Rp_701"
"Rp<702>v" "Rp_702"
"Rp<703>v" "Rp_703"
"Rp<704>v" "Rp_704"
"Rp<705>v" "Rp_705"
"Rp<706>v" "Rp_706"
"Rp<707>v" "Rp_707"
"Rp<708>v" "Rp_708"
"Rp<709>v" "Rp_709"
"Rp<710>v" "Rp_710"
"Rp<711>v" "Rp_711"
"Rp<712>v" "Rp_712"
"Rp<713>v" "Rp_713"
"Rp<714>v" "Rp_714"
"Rp<715>v" "Rp_715"
"Rp<716>v" "Rp_716"
"Rp<717>v" "Rp_717"
"Rp<718>v" "Rp_718"
"Rp<719>v" "Rp_719"
"Rp<720>v" "Rp_720"
"Rp<721>v" "Rp_721"
"Rp<722>v" "Rp_722"
"Rp<723>v" "Rp_723"
"Rp<724>v" "Rp_724"
"Rp<725>v" "Rp_725"
"Rp<726>v" "Rp_726"
"Rp<727>v" "Rp_727"
"Rp<728>v" "Rp_728"
"Rp<729>v" "Rp_729"
"Rp<730>v" "Rp_730"
"Rp<731>v" "Rp_731"
"Rp<732>v" "Rp_732"
"Rp<733>v" "Rp_733"
"Rp<734>v" "Rp_734"
"Rp<735>v" "Rp_735"
"Rp<736>v" "Rp_736"
"Rp<737>v" "Rp_737"
"Rp<738>v" "Rp_738"
"Rp<739>v" "Rp_739"
"Rp<740>v" "Rp_740"
"Rp<741>v" "Rp_741"
"Rp<742>v" "Rp_742"
"Rp<743>v" "Rp_743"
"Rp<744>v" "Rp_744"
"Rp<745>v" "Rp_745"
"Rp<746>v" "Rp_746"
"Rp<747>v" "Rp_747"
"Rp<748>v" "Rp_748"
"Rp<749>v" "Rp_749"
"Rp<750>v" "Rp_750"
"Rp<751>v" "Rp_751"
"Rp<752>v" "Rp_752"
"Rp<753>v" "Rp_753"
"Rp<754>v" "Rp_754"
"Rp<755>v" "Rp_755"
"Rp<756>v" "Rp_756"
"Rp<757>v" "Rp_757"
"Rp<758>v" "Rp_758"
"Rp<759>v" "Rp_759"
"Rp<760>v" "Rp_760"
"Rp<761>v" "Rp_761"
"Rp<762>v" "Rp_762"
"Rp<763>v" "Rp_763"
"Rp<764>v" "Rp_764"
"Rp<765>v" "Rp_765"
"Rp<766>v" "Rp_766"
"Rp<767>v" "Rp_767"
"Rp<768>v" "Rp_768"
"Rp<769>v" "Rp_769"
"Rp<770>v" "Rp_770"
"Rp<771>v" "Rp_771"
"Rp<772>v" "Rp_772"
"Rp<773>v" "Rp_773"
"Rp<774>v" "Rp_774"
"Rp<775>v" "Rp_775"
"Rp<776>v" "Rp_776"
"Rp<777>v" "Rp_777"
"Rp<778>v" "Rp_778"
"Rp<779>v" "Rp_779"
"Rp<780>v" "Rp_780"
"Rp<781>v" "Rp_781"
"Rp<782>v" "Rp_782"
"Rp<783>v" "Rp_783"
"Rp<784>v" "Rp_784"
"vo<1>v" "vo_1"
"vo<2>v" "vo_2"
"vo<3>v" "vo_3"
"vo<4>v" "vo_4"
"vo<5>v" "vo_5"
"vo<6>v" "vo_6"
"vo<7>v" "vo_7"
"vo<8>v" "vo_8"
"vo<9>v" "vo_9"
"vo<10>v" "vo_10"
"vo<11>v" "vo_11"
"vo<12>v" "vo_12"
"vo<13>v" "vo_13"
"vo<14>v" "vo_14"
"vo<15>v" "vo_15"
"vo<16>v" "vo_16"
"Rn<1>v" "Rn_1"
"Rn<2>v" "Rn_2"
"Rn<3>v" "Rn_3"
"Rn<4>v" "Rn_4"
"Rn<5>v" "Rn_5"
"Rn<6>v" "Rn_6"
"Rn<7>v" "Rn_7"
"Rn<8>v" "Rn_8"
"Rn<9>v" "Rn_9"
"Rn<10>v" "Rn_10"
"Rn<11>v" "Rn_11"
"Rn<12>v" "Rn_12"
"Rn<13>v" "Rn_13"
"Rn<14>v" "Rn_14"
"Rn<15>v" "Rn_15"
"Rn<16>v" "Rn_16"
"Rn<17>v" "Rn_17"
"Rn<18>v" "Rn_18"
"Rn<19>v" "Rn_19"
"Rn<20>v" "Rn_20"
"Rn<21>v" "Rn_21"
"Rn<22>v" "Rn_22"
"Rn<23>v" "Rn_23"
"Rn<24>v" "Rn_24"
"Rn<25>v" "Rn_25"
"Rn<26>v" "Rn_26"
"Rn<27>v" "Rn_27"
"Rn<28>v" "Rn_28"
"Rn<29>v" "Rn_29"
"Rn<30>v" "Rn_30"
"Rn<31>v" "Rn_31"
"Rn<32>v" "Rn_32"
"Rn<33>v" "Rn_33"
"Rn<34>v" "Rn_34"
"Rn<35>v" "Rn_35"
"Rn<36>v" "Rn_36"
"Rn<37>v" "Rn_37"
"Rn<38>v" "Rn_38"
"Rn<39>v" "Rn_39"
"Rn<40>v" "Rn_40"
"Rn<41>v" "Rn_41"
"Rn<42>v" "Rn_42"
"Rn<43>v" "Rn_43"
"Rn<44>v" "Rn_44"
"Rn<45>v" "Rn_45"
"Rn<46>v" "Rn_46"
"Rn<47>v" "Rn_47"
"Rn<48>v" "Rn_48"
"Rn<49>v" "Rn_49"
"Rn<50>v" "Rn_50"
"Rn<51>v" "Rn_51"
"Rn<52>v" "Rn_52"
"Rn<53>v" "Rn_53"
"Rn<54>v" "Rn_54"
"Rn<55>v" "Rn_55"
"Rn<56>v" "Rn_56"
"Rn<57>v" "Rn_57"
"Rn<58>v" "Rn_58"
"Rn<59>v" "Rn_59"
"Rn<60>v" "Rn_60"
"Rn<61>v" "Rn_61"
"Rn<62>v" "Rn_62"
"Rn<63>v" "Rn_63"
"Rn<64>v" "Rn_64"
"Rn<65>v" "Rn_65"
"Rn<66>v" "Rn_66"
"Rn<67>v" "Rn_67"
"Rn<68>v" "Rn_68"
"Rn<69>v" "Rn_69"
"Rn<70>v" "Rn_70"
"Rn<71>v" "Rn_71"
"Rn<72>v" "Rn_72"
"Rn<73>v" "Rn_73"
"Rn<74>v" "Rn_74"
"Rn<75>v" "Rn_75"
"Rn<76>v" "Rn_76"
"Rn<77>v" "Rn_77"
"Rn<78>v" "Rn_78"
"Rn<79>v" "Rn_79"
"Rn<80>v" "Rn_80"
"Rn<81>v" "Rn_81"
"Rn<82>v" "Rn_82"
"Rn<83>v" "Rn_83"
"Rn<84>v" "Rn_84"
"Rn<85>v" "Rn_85"
"Rn<86>v" "Rn_86"
"Rn<87>v" "Rn_87"
"Rn<88>v" "Rn_88"
"Rn<89>v" "Rn_89"
"Rn<90>v" "Rn_90"
"Rn<91>v" "Rn_91"
"Rn<92>v" "Rn_92"
"Rn<93>v" "Rn_93"
"Rn<94>v" "Rn_94"
"Rn<95>v" "Rn_95"
"Rn<96>v" "Rn_96"
"Rn<97>v" "Rn_97"
"Rn<98>v" "Rn_98"
"Rn<99>v" "Rn_99"
"Rn<100>v" "Rn_100"
"Rn<101>v" "Rn_101"
"Rn<102>v" "Rn_102"
"Rn<103>v" "Rn_103"
"Rn<104>v" "Rn_104"
"Rn<105>v" "Rn_105"
"Rn<106>v" "Rn_106"
"Rn<107>v" "Rn_107"
"Rn<108>v" "Rn_108"
"Rn<109>v" "Rn_109"
"Rn<110>v" "Rn_110"
"Rn<111>v" "Rn_111"
"Rn<112>v" "Rn_112"
"Rn<113>v" "Rn_113"
"Rn<114>v" "Rn_114"
"Rn<115>v" "Rn_115"
"Rn<116>v" "Rn_116"
"Rn<117>v" "Rn_117"
"Rn<118>v" "Rn_118"
"Rn<119>v" "Rn_119"
"Rn<120>v" "Rn_120"
"Rn<121>v" "Rn_121"
"Rn<122>v" "Rn_122"
"Rn<123>v" "Rn_123"
"Rn<124>v" "Rn_124"
"Rn<125>v" "Rn_125"
"Rn<126>v" "Rn_126"
"Rn<127>v" "Rn_127"
"Rn<128>v" "Rn_128"
"Rn<129>v" "Rn_129"
"Rn<130>v" "Rn_130"
"Rn<131>v" "Rn_131"
"Rn<132>v" "Rn_132"
"Rn<133>v" "Rn_133"
"Rn<134>v" "Rn_134"
"Rn<135>v" "Rn_135"
"Rn<136>v" "Rn_136"
"Rn<137>v" "Rn_137"
"Rn<138>v" "Rn_138"
"Rn<139>v" "Rn_139"
"Rn<140>v" "Rn_140"
"Rn<141>v" "Rn_141"
"Rn<142>v" "Rn_142"
"Rn<143>v" "Rn_143"
"Rn<144>v" "Rn_144"
"Rn<145>v" "Rn_145"
"Rn<146>v" "Rn_146"
"Rn<147>v" "Rn_147"
"Rn<148>v" "Rn_148"
"Rn<149>v" "Rn_149"
"Rn<150>v" "Rn_150"
"Rn<151>v" "Rn_151"
"Rn<152>v" "Rn_152"
"Rn<153>v" "Rn_153"
"Rn<154>v" "Rn_154"
"Rn<155>v" "Rn_155"
"Rn<156>v" "Rn_156"
"Rn<157>v" "Rn_157"
"Rn<158>v" "Rn_158"
"Rn<159>v" "Rn_159"
"Rn<160>v" "Rn_160"
"Rn<161>v" "Rn_161"
"Rn<162>v" "Rn_162"
"Rn<163>v" "Rn_163"
"Rn<164>v" "Rn_164"
"Rn<165>v" "Rn_165"
"Rn<166>v" "Rn_166"
"Rn<167>v" "Rn_167"
"Rn<168>v" "Rn_168"
"Rn<169>v" "Rn_169"
"Rn<170>v" "Rn_170"
"Rn<171>v" "Rn_171"
"Rn<172>v" "Rn_172"
"Rn<173>v" "Rn_173"
"Rn<174>v" "Rn_174"
"Rn<175>v" "Rn_175"
"Rn<176>v" "Rn_176"
"Rn<177>v" "Rn_177"
"Rn<178>v" "Rn_178"
"Rn<179>v" "Rn_179"
"Rn<180>v" "Rn_180"
"Rn<181>v" "Rn_181"
"Rn<182>v" "Rn_182"
"Rn<183>v" "Rn_183"
"Rn<184>v" "Rn_184"
"Rn<185>v" "Rn_185"
"Rn<186>v" "Rn_186"
"Rn<187>v" "Rn_187"
"Rn<188>v" "Rn_188"
"Rn<189>v" "Rn_189"
"Rn<190>v" "Rn_190"
"Rn<191>v" "Rn_191"
"Rn<192>v" "Rn_192"
"Rn<193>v" "Rn_193"
"Rn<194>v" "Rn_194"
"Rn<195>v" "Rn_195"
"Rn<196>v" "Rn_196"
"Rn<197>v" "Rn_197"
"Rn<198>v" "Rn_198"
"Rn<199>v" "Rn_199"
"Rn<200>v" "Rn_200"
"Rn<201>v" "Rn_201"
"Rn<202>v" "Rn_202"
"Rn<203>v" "Rn_203"
"Rn<204>v" "Rn_204"
"Rn<205>v" "Rn_205"
"Rn<206>v" "Rn_206"
"Rn<207>v" "Rn_207"
"Rn<208>v" "Rn_208"
"Rn<209>v" "Rn_209"
"Rn<210>v" "Rn_210"
"Rn<211>v" "Rn_211"
"Rn<212>v" "Rn_212"
"Rn<213>v" "Rn_213"
"Rn<214>v" "Rn_214"
"Rn<215>v" "Rn_215"
"Rn<216>v" "Rn_216"
"Rn<217>v" "Rn_217"
"Rn<218>v" "Rn_218"
"Rn<219>v" "Rn_219"
"Rn<220>v" "Rn_220"
"Rn<221>v" "Rn_221"
"Rn<222>v" "Rn_222"
"Rn<223>v" "Rn_223"
"Rn<224>v" "Rn_224"
"Rn<225>v" "Rn_225"
"Rn<226>v" "Rn_226"
"Rn<227>v" "Rn_227"
"Rn<228>v" "Rn_228"
"Rn<229>v" "Rn_229"
"Rn<230>v" "Rn_230"
"Rn<231>v" "Rn_231"
"Rn<232>v" "Rn_232"
"Rn<233>v" "Rn_233"
"Rn<234>v" "Rn_234"
"Rn<235>v" "Rn_235"
"Rn<236>v" "Rn_236"
"Rn<237>v" "Rn_237"
"Rn<238>v" "Rn_238"
"Rn<239>v" "Rn_239"
"Rn<240>v" "Rn_240"
"Rn<241>v" "Rn_241"
"Rn<242>v" "Rn_242"
"Rn<243>v" "Rn_243"
"Rn<244>v" "Rn_244"
"Rn<245>v" "Rn_245"
"Rn<246>v" "Rn_246"
"Rn<247>v" "Rn_247"
"Rn<248>v" "Rn_248"
"Rn<249>v" "Rn_249"
"Rn<250>v" "Rn_250"
"Rn<251>v" "Rn_251"
"Rn<252>v" "Rn_252"
"Rn<253>v" "Rn_253"
"Rn<254>v" "Rn_254"
"Rn<255>v" "Rn_255"
"Rn<256>v" "Rn_256"
"Rn<257>v" "Rn_257"
"Rn<258>v" "Rn_258"
"Rn<259>v" "Rn_259"
"Rn<260>v" "Rn_260"
"Rn<261>v" "Rn_261"
"Rn<262>v" "Rn_262"
"Rn<263>v" "Rn_263"
"Rn<264>v" "Rn_264"
"Rn<265>v" "Rn_265"
"Rn<266>v" "Rn_266"
"Rn<267>v" "Rn_267"
"Rn<268>v" "Rn_268"
"Rn<269>v" "Rn_269"
"Rn<270>v" "Rn_270"
"Rn<271>v" "Rn_271"
"Rn<272>v" "Rn_272"
"Rn<273>v" "Rn_273"
"Rn<274>v" "Rn_274"
"Rn<275>v" "Rn_275"
"Rn<276>v" "Rn_276"
"Rn<277>v" "Rn_277"
"Rn<278>v" "Rn_278"
"Rn<279>v" "Rn_279"
"Rn<280>v" "Rn_280"
"Rn<281>v" "Rn_281"
"Rn<282>v" "Rn_282"
"Rn<283>v" "Rn_283"
"Rn<284>v" "Rn_284"
"Rn<285>v" "Rn_285"
"Rn<286>v" "Rn_286"
"Rn<287>v" "Rn_287"
"Rn<288>v" "Rn_288"
"Rn<289>v" "Rn_289"
"Rn<290>v" "Rn_290"
"Rn<291>v" "Rn_291"
"Rn<292>v" "Rn_292"
"Rn<293>v" "Rn_293"
"Rn<294>v" "Rn_294"
"Rn<295>v" "Rn_295"
"Rn<296>v" "Rn_296"
"Rn<297>v" "Rn_297"
"Rn<298>v" "Rn_298"
"Rn<299>v" "Rn_299"
"Rn<300>v" "Rn_300"
"Rn<301>v" "Rn_301"
"Rn<302>v" "Rn_302"
"Rn<303>v" "Rn_303"
"Rn<304>v" "Rn_304"
"Rn<305>v" "Rn_305"
"Rn<306>v" "Rn_306"
"Rn<307>v" "Rn_307"
"Rn<308>v" "Rn_308"
"Rn<309>v" "Rn_309"
"Rn<310>v" "Rn_310"
"Rn<311>v" "Rn_311"
"Rn<312>v" "Rn_312"
"Rn<313>v" "Rn_313"
"Rn<314>v" "Rn_314"
"Rn<315>v" "Rn_315"
"Rn<316>v" "Rn_316"
"Rn<317>v" "Rn_317"
"Rn<318>v" "Rn_318"
"Rn<319>v" "Rn_319"
"Rn<320>v" "Rn_320"
"Rn<321>v" "Rn_321"
"Rn<322>v" "Rn_322"
"Rn<323>v" "Rn_323"
"Rn<324>v" "Rn_324"
"Rn<325>v" "Rn_325"
"Rn<326>v" "Rn_326"
"Rn<327>v" "Rn_327"
"Rn<328>v" "Rn_328"
"Rn<329>v" "Rn_329"
"Rn<330>v" "Rn_330"
"Rn<331>v" "Rn_331"
"Rn<332>v" "Rn_332"
"Rn<333>v" "Rn_333"
"Rn<334>v" "Rn_334"
"Rn<335>v" "Rn_335"
"Rn<336>v" "Rn_336"
"Rn<337>v" "Rn_337"
"Rn<338>v" "Rn_338"
"Rn<339>v" "Rn_339"
"Rn<340>v" "Rn_340"
"Rn<341>v" "Rn_341"
"Rn<342>v" "Rn_342"
"Rn<343>v" "Rn_343"
"Rn<344>v" "Rn_344"
"Rn<345>v" "Rn_345"
"Rn<346>v" "Rn_346"
"Rn<347>v" "Rn_347"
"Rn<348>v" "Rn_348"
"Rn<349>v" "Rn_349"
"Rn<350>v" "Rn_350"
"Rn<351>v" "Rn_351"
"Rn<352>v" "Rn_352"
"Rn<353>v" "Rn_353"
"Rn<354>v" "Rn_354"
"Rn<355>v" "Rn_355"
"Rn<356>v" "Rn_356"
"Rn<357>v" "Rn_357"
"Rn<358>v" "Rn_358"
"Rn<359>v" "Rn_359"
"Rn<360>v" "Rn_360"
"Rn<361>v" "Rn_361"
"Rn<362>v" "Rn_362"
"Rn<363>v" "Rn_363"
"Rn<364>v" "Rn_364"
"Rn<365>v" "Rn_365"
"Rn<366>v" "Rn_366"
"Rn<367>v" "Rn_367"
"Rn<368>v" "Rn_368"
"Rn<369>v" "Rn_369"
"Rn<370>v" "Rn_370"
"Rn<371>v" "Rn_371"
"Rn<372>v" "Rn_372"
"Rn<373>v" "Rn_373"
"Rn<374>v" "Rn_374"
"Rn<375>v" "Rn_375"
"Rn<376>v" "Rn_376"
"Rn<377>v" "Rn_377"
"Rn<378>v" "Rn_378"
"Rn<379>v" "Rn_379"
"Rn<380>v" "Rn_380"
"Rn<381>v" "Rn_381"
"Rn<382>v" "Rn_382"
"Rn<383>v" "Rn_383"
"Rn<384>v" "Rn_384"
"Rn<385>v" "Rn_385"
"Rn<386>v" "Rn_386"
"Rn<387>v" "Rn_387"
"Rn<388>v" "Rn_388"
"Rn<389>v" "Rn_389"
"Rn<390>v" "Rn_390"
"Rn<391>v" "Rn_391"
"Rn<392>v" "Rn_392"
"Rn<393>v" "Rn_393"
"Rn<394>v" "Rn_394"
"Rn<395>v" "Rn_395"
"Rn<396>v" "Rn_396"
"Rn<397>v" "Rn_397"
"Rn<398>v" "Rn_398"
"Rn<399>v" "Rn_399"
"Rn<400>v" "Rn_400"
"Rn<401>v" "Rn_401"
"Rn<402>v" "Rn_402"
"Rn<403>v" "Rn_403"
"Rn<404>v" "Rn_404"
"Rn<405>v" "Rn_405"
"Rn<406>v" "Rn_406"
"Rn<407>v" "Rn_407"
"Rn<408>v" "Rn_408"
"Rn<409>v" "Rn_409"
"Rn<410>v" "Rn_410"
"Rn<411>v" "Rn_411"
"Rn<412>v" "Rn_412"
"Rn<413>v" "Rn_413"
"Rn<414>v" "Rn_414"
"Rn<415>v" "Rn_415"
"Rn<416>v" "Rn_416"
"Rn<417>v" "Rn_417"
"Rn<418>v" "Rn_418"
"Rn<419>v" "Rn_419"
"Rn<420>v" "Rn_420"
"Rn<421>v" "Rn_421"
"Rn<422>v" "Rn_422"
"Rn<423>v" "Rn_423"
"Rn<424>v" "Rn_424"
"Rn<425>v" "Rn_425"
"Rn<426>v" "Rn_426"
"Rn<427>v" "Rn_427"
"Rn<428>v" "Rn_428"
"Rn<429>v" "Rn_429"
"Rn<430>v" "Rn_430"
"Rn<431>v" "Rn_431"
"Rn<432>v" "Rn_432"
"Rn<433>v" "Rn_433"
"Rn<434>v" "Rn_434"
"Rn<435>v" "Rn_435"
"Rn<436>v" "Rn_436"
"Rn<437>v" "Rn_437"
"Rn<438>v" "Rn_438"
"Rn<439>v" "Rn_439"
"Rn<440>v" "Rn_440"
"Rn<441>v" "Rn_441"
"Rn<442>v" "Rn_442"
"Rn<443>v" "Rn_443"
"Rn<444>v" "Rn_444"
"Rn<445>v" "Rn_445"
"Rn<446>v" "Rn_446"
"Rn<447>v" "Rn_447"
"Rn<448>v" "Rn_448"
"Rn<449>v" "Rn_449"
"Rn<450>v" "Rn_450"
"Rn<451>v" "Rn_451"
"Rn<452>v" "Rn_452"
"Rn<453>v" "Rn_453"
"Rn<454>v" "Rn_454"
"Rn<455>v" "Rn_455"
"Rn<456>v" "Rn_456"
"Rn<457>v" "Rn_457"
"Rn<458>v" "Rn_458"
"Rn<459>v" "Rn_459"
"Rn<460>v" "Rn_460"
"Rn<461>v" "Rn_461"
"Rn<462>v" "Rn_462"
"Rn<463>v" "Rn_463"
"Rn<464>v" "Rn_464"
"Rn<465>v" "Rn_465"
"Rn<466>v" "Rn_466"
"Rn<467>v" "Rn_467"
"Rn<468>v" "Rn_468"
"Rn<469>v" "Rn_469"
"Rn<470>v" "Rn_470"
"Rn<471>v" "Rn_471"
"Rn<472>v" "Rn_472"
"Rn<473>v" "Rn_473"
"Rn<474>v" "Rn_474"
"Rn<475>v" "Rn_475"
"Rn<476>v" "Rn_476"
"Rn<477>v" "Rn_477"
"Rn<478>v" "Rn_478"
"Rn<479>v" "Rn_479"
"Rn<480>v" "Rn_480"
"Rn<481>v" "Rn_481"
"Rn<482>v" "Rn_482"
"Rn<483>v" "Rn_483"
"Rn<484>v" "Rn_484"
"Rn<485>v" "Rn_485"
"Rn<486>v" "Rn_486"
"Rn<487>v" "Rn_487"
"Rn<488>v" "Rn_488"
"Rn<489>v" "Rn_489"
"Rn<490>v" "Rn_490"
"Rn<491>v" "Rn_491"
"Rn<492>v" "Rn_492"
"Rn<493>v" "Rn_493"
"Rn<494>v" "Rn_494"
"Rn<495>v" "Rn_495"
"Rn<496>v" "Rn_496"
"Rn<497>v" "Rn_497"
"Rn<498>v" "Rn_498"
"Rn<499>v" "Rn_499"
"Rn<500>v" "Rn_500"
"Rn<501>v" "Rn_501"
"Rn<502>v" "Rn_502"
"Rn<503>v" "Rn_503"
"Rn<504>v" "Rn_504"
"Rn<505>v" "Rn_505"
"Rn<506>v" "Rn_506"
"Rn<507>v" "Rn_507"
"Rn<508>v" "Rn_508"
"Rn<509>v" "Rn_509"
"Rn<510>v" "Rn_510"
"Rn<511>v" "Rn_511"
"Rn<512>v" "Rn_512"
"Rn<513>v" "Rn_513"
"Rn<514>v" "Rn_514"
"Rn<515>v" "Rn_515"
"Rn<516>v" "Rn_516"
"Rn<517>v" "Rn_517"
"Rn<518>v" "Rn_518"
"Rn<519>v" "Rn_519"
"Rn<520>v" "Rn_520"
"Rn<521>v" "Rn_521"
"Rn<522>v" "Rn_522"
"Rn<523>v" "Rn_523"
"Rn<524>v" "Rn_524"
"Rn<525>v" "Rn_525"
"Rn<526>v" "Rn_526"
"Rn<527>v" "Rn_527"
"Rn<528>v" "Rn_528"
"Rn<529>v" "Rn_529"
"Rn<530>v" "Rn_530"
"Rn<531>v" "Rn_531"
"Rn<532>v" "Rn_532"
"Rn<533>v" "Rn_533"
"Rn<534>v" "Rn_534"
"Rn<535>v" "Rn_535"
"Rn<536>v" "Rn_536"
"Rn<537>v" "Rn_537"
"Rn<538>v" "Rn_538"
"Rn<539>v" "Rn_539"
"Rn<540>v" "Rn_540"
"Rn<541>v" "Rn_541"
"Rn<542>v" "Rn_542"
"Rn<543>v" "Rn_543"
"Rn<544>v" "Rn_544"
"Rn<545>v" "Rn_545"
"Rn<546>v" "Rn_546"
"Rn<547>v" "Rn_547"
"Rn<548>v" "Rn_548"
"Rn<549>v" "Rn_549"
"Rn<550>v" "Rn_550"
"Rn<551>v" "Rn_551"
"Rn<552>v" "Rn_552"
"Rn<553>v" "Rn_553"
"Rn<554>v" "Rn_554"
"Rn<555>v" "Rn_555"
"Rn<556>v" "Rn_556"
"Rn<557>v" "Rn_557"
"Rn<558>v" "Rn_558"
"Rn<559>v" "Rn_559"
"Rn<560>v" "Rn_560"
"Rn<561>v" "Rn_561"
"Rn<562>v" "Rn_562"
"Rn<563>v" "Rn_563"
"Rn<564>v" "Rn_564"
"Rn<565>v" "Rn_565"
"Rn<566>v" "Rn_566"
"Rn<567>v" "Rn_567"
"Rn<568>v" "Rn_568"
"Rn<569>v" "Rn_569"
"Rn<570>v" "Rn_570"
"Rn<571>v" "Rn_571"
"Rn<572>v" "Rn_572"
"Rn<573>v" "Rn_573"
"Rn<574>v" "Rn_574"
"Rn<575>v" "Rn_575"
"Rn<576>v" "Rn_576"
"Rn<577>v" "Rn_577"
"Rn<578>v" "Rn_578"
"Rn<579>v" "Rn_579"
"Rn<580>v" "Rn_580"
"Rn<581>v" "Rn_581"
"Rn<582>v" "Rn_582"
"Rn<583>v" "Rn_583"
"Rn<584>v" "Rn_584"
"Rn<585>v" "Rn_585"
"Rn<586>v" "Rn_586"
"Rn<587>v" "Rn_587"
"Rn<588>v" "Rn_588"
"Rn<589>v" "Rn_589"
"Rn<590>v" "Rn_590"
"Rn<591>v" "Rn_591"
"Rn<592>v" "Rn_592"
"Rn<593>v" "Rn_593"
"Rn<594>v" "Rn_594"
"Rn<595>v" "Rn_595"
"Rn<596>v" "Rn_596"
"Rn<597>v" "Rn_597"
"Rn<598>v" "Rn_598"
"Rn<599>v" "Rn_599"
"Rn<600>v" "Rn_600"
"Rn<601>v" "Rn_601"
"Rn<602>v" "Rn_602"
"Rn<603>v" "Rn_603"
"Rn<604>v" "Rn_604"
"Rn<605>v" "Rn_605"
"Rn<606>v" "Rn_606"
"Rn<607>v" "Rn_607"
"Rn<608>v" "Rn_608"
"Rn<609>v" "Rn_609"
"Rn<610>v" "Rn_610"
"Rn<611>v" "Rn_611"
"Rn<612>v" "Rn_612"
"Rn<613>v" "Rn_613"
"Rn<614>v" "Rn_614"
"Rn<615>v" "Rn_615"
"Rn<616>v" "Rn_616"
"Rn<617>v" "Rn_617"
"Rn<618>v" "Rn_618"
"Rn<619>v" "Rn_619"
"Rn<620>v" "Rn_620"
"Rn<621>v" "Rn_621"
"Rn<622>v" "Rn_622"
"Rn<623>v" "Rn_623"
"Rn<624>v" "Rn_624"
"Rn<625>v" "Rn_625"
"Rn<626>v" "Rn_626"
"Rn<627>v" "Rn_627"
"Rn<628>v" "Rn_628"
"Rn<629>v" "Rn_629"
"Rn<630>v" "Rn_630"
"Rn<631>v" "Rn_631"
"Rn<632>v" "Rn_632"
"Rn<633>v" "Rn_633"
"Rn<634>v" "Rn_634"
"Rn<635>v" "Rn_635"
"Rn<636>v" "Rn_636"
"Rn<637>v" "Rn_637"
"Rn<638>v" "Rn_638"
"Rn<639>v" "Rn_639"
"Rn<640>v" "Rn_640"
"Rn<641>v" "Rn_641"
"Rn<642>v" "Rn_642"
"Rn<643>v" "Rn_643"
"Rn<644>v" "Rn_644"
"Rn<645>v" "Rn_645"
"Rn<646>v" "Rn_646"
"Rn<647>v" "Rn_647"
"Rn<648>v" "Rn_648"
"Rn<649>v" "Rn_649"
"Rn<650>v" "Rn_650"
"Rn<651>v" "Rn_651"
"Rn<652>v" "Rn_652"
"Rn<653>v" "Rn_653"
"Rn<654>v" "Rn_654"
"Rn<655>v" "Rn_655"
"Rn<656>v" "Rn_656"
"Rn<657>v" "Rn_657"
"Rn<658>v" "Rn_658"
"Rn<659>v" "Rn_659"
"Rn<660>v" "Rn_660"
"Rn<661>v" "Rn_661"
"Rn<662>v" "Rn_662"
"Rn<663>v" "Rn_663"
"Rn<664>v" "Rn_664"
"Rn<665>v" "Rn_665"
"Rn<666>v" "Rn_666"
"Rn<667>v" "Rn_667"
"Rn<668>v" "Rn_668"
"Rn<669>v" "Rn_669"
"Rn<670>v" "Rn_670"
"Rn<671>v" "Rn_671"
"Rn<672>v" "Rn_672"
"Rn<673>v" "Rn_673"
"Rn<674>v" "Rn_674"
"Rn<675>v" "Rn_675"
"Rn<676>v" "Rn_676"
"Rn<677>v" "Rn_677"
"Rn<678>v" "Rn_678"
"Rn<679>v" "Rn_679"
"Rn<680>v" "Rn_680"
"Rn<681>v" "Rn_681"
"Rn<682>v" "Rn_682"
"Rn<683>v" "Rn_683"
"Rn<684>v" "Rn_684"
"Rn<685>v" "Rn_685"
"Rn<686>v" "Rn_686"
"Rn<687>v" "Rn_687"
"Rn<688>v" "Rn_688"
"Rn<689>v" "Rn_689"
"Rn<690>v" "Rn_690"
"Rn<691>v" "Rn_691"
"Rn<692>v" "Rn_692"
"Rn<693>v" "Rn_693"
"Rn<694>v" "Rn_694"
"Rn<695>v" "Rn_695"
"Rn<696>v" "Rn_696"
"Rn<697>v" "Rn_697"
"Rn<698>v" "Rn_698"
"Rn<699>v" "Rn_699"
"Rn<700>v" "Rn_700"
"Rn<701>v" "Rn_701"
"Rn<702>v" "Rn_702"
"Rn<703>v" "Rn_703"
"Rn<704>v" "Rn_704"
"Rn<705>v" "Rn_705"
"Rn<706>v" "Rn_706"
"Rn<707>v" "Rn_707"
"Rn<708>v" "Rn_708"
"Rn<709>v" "Rn_709"