HEADER
"PSFversion" "1.00"
"I12_1v" "I12<1>"
"I12_1n" "vrand2"
"I12_2v" "I12<2>"
"I12_2n" "vrand2"
"I12_3v" "I12<3>"
"I12_3n" "vrand2"
"I12_4v" "I12<4>"
"I12_4n" "vrand2"
"I12_5v" "I12<5>"
"I12_5n" "vrand2"
"I12_6v" "I12<6>"
"I12_6n" "vrand2"
"I12_7v" "I12<7>"
"I12_7n" "vrand2"
"I12_8v" "I12<8>"
"I12_8n" "vrand2"
"I12_9v" "I12<9>"
"I12_9n" "vrand2"
"I12_10v" "I12<10>"
"I12_10n" "vrand2"
"I12_11v" "I12<11>"
"I12_11n" "vrand2"
"I12_12v" "I12<12>"
"I12_12n" "vrand2"
"I12_13v" "I12<13>"
"I12_13n" "vrand2"
"I12_14v" "I12<14>"
"I12_14n" "vrand2"
"I12_15v" "I12<15>"
"I12_15n" "vrand2"
"I12_16v" "I12<16>"
"I12_16n" "vrand2"
"I12_17v" "I12<17>"
"I12_17n" "vrand2"
"I12_18v" "I12<18>"
"I12_18n" "vrand2"
"I12_19v" "I12<19>"
"I12_19n" "vrand2"
"I12_20v" "I12<20>"
"I12_20n" "vrand2"
"I12_21v" "I12<21>"
"I12_21n" "vrand2"
"I12_22v" "I12<22>"
"I12_22n" "vrand2"
"I12_23v" "I12<23>"
"I12_23n" "vrand2"
"I12_24v" "I12<24>"
"I12_24n" "vrand2"
"I12_25v" "I12<25>"
"I12_25n" "vrand2"
"I12_26v" "I12<26>"
"I12_26n" "vrand2"
"I12_27v" "I12<27>"
"I12_27n" "vrand2"
"I12_28v" "I12<28>"
"I12_28n" "vrand2"
"I12_29v" "I12<29>"
"I12_29n" "vrand2"
"I12_30v" "I12<30>"
"I12_30n" "vrand2"
"I12_31v" "I12<31>"
"I12_31n" "vrand2"
"I12_32v" "I12<32>"
"I12_32n" "vrand2"
"I12_33v" "I12<33>"
"I12_33n" "vrand2"
"I12_34v" "I12<34>"
"I12_34n" "vrand2"
"I12_35v" "I12<35>"
"I12_35n" "vrand2"
"I12_36v" "I12<36>"
"I12_36n" "vrand2"
"I12_37v" "I12<37>"
"I12_37n" "vrand2"
"I12_38v" "I12<38>"
"I12_38n" "vrand2"
"I12_39v" "I12<39>"
"I12_39n" "vrand2"
"I12_40v" "I12<40>"
"I12_40n" "vrand2"
"I12_41v" "I12<41>"
"I12_41n" "vrand2"
"I12_42v" "I12<42>"
"I12_42n" "vrand2"
"I12_43v" "I12<43>"
"I12_43n" "vrand2"
"I12_44v" "I12<44>"
"I12_44n" "vrand2"
"I12_45v" "I12<45>"
"I12_45n" "vrand2"
"I12_46v" "I12<46>"
"I12_46n" "vrand2"
"I12_47v" "I12<47>"
"I12_47n" "vrand2"
"I12_48v" "I12<48>"
"I12_48n" "vrand2"
"I12_49v" "I12<49>"
"I12_49n" "vrand2"
"I12_50v" "I12<50>"
"I12_50n" "vrand2"
"I12_51v" "I12<51>"
"I12_51n" "vrand2"
"I12_52v" "I12<52>"
"I12_52n" "vrand2"
"I12_53v" "I12<53>"
"I12_53n" "vrand2"
"I12_54v" "I12<54>"
"I12_54n" "vrand2"
"I12_55v" "I12<55>"
"I12_55n" "vrand2"
"I12_56v" "I12<56>"
"I12_56n" "vrand2"
"I12_57v" "I12<57>"
"I12_57n" "vrand2"
"I12_58v" "I12<58>"
"I12_58n" "vrand2"
"I12_59v" "I12<59>"
"I12_59n" "vrand2"
"I12_60v" "I12<60>"
"I12_60n" "vrand2"
"I12_61v" "I12<61>"
"I12_61n" "vrand2"
"I12_62v" "I12<62>"
"I12_62n" "vrand2"
"I12_63v" "I12<63>"
"I12_63n" "vrand2"
"I12_64v" "I12<64>"
"I12_64n" "vrand2"
"I12_65v" "I12<65>"
"I12_65n" "vrand2"
"I12_66v" "I12<66>"
"I12_66n" "vrand2"
"I12_67v" "I12<67>"
"I12_67n" "vrand2"
"I12_68v" "I12<68>"
"I12_68n" "vrand2"
"I12_69v" "I12<69>"
"I12_69n" "vrand2"
"I12_70v" "I12<70>"
"I12_70n" "vrand2"
"I12_71v" "I12<71>"
"I12_71n" "vrand2"
"I12_72v" "I12<72>"
"I12_72n" "vrand2"
"I12_73v" "I12<73>"
"I12_73n" "vrand2"
"I12_74v" "I12<74>"
"I12_74n" "vrand2"
"I12_75v" "I12<75>"
"I12_75n" "vrand2"
"I12_76v" "I12<76>"
"I12_76n" "vrand2"
"I12_77v" "I12<77>"
"I12_77n" "vrand2"
"I12_78v" "I12<78>"
"I12_78n" "vrand2"
"I12_79v" "I12<79>"
"I12_79n" "vrand2"
"I12_80v" "I12<80>"
"I12_80n" "vrand2"
"I12_81v" "I12<81>"
"I12_81n" "vrand2"
"I12_82v" "I12<82>"
"I12_82n" "vrand2"
"I12_83v" "I12<83>"
"I12_83n" "vrand2"
"I12_84v" "I12<84>"
"I12_84n" "vrand2"
"I12_85v" "I12<85>"
"I12_85n" "vrand2"
"I12_86v" "I12<86>"
"I12_86n" "vrand2"
"I12_87v" "I12<87>"
"I12_87n" "vrand2"
"I12_88v" "I12<88>"
"I12_88n" "vrand2"
"I12_89v" "I12<89>"
"I12_89n" "vrand2"
"I12_90v" "I12<90>"
"I12_90n" "vrand2"
"I12_91v" "I12<91>"
"I12_91n" "vrand2"
"I12_92v" "I12<92>"
"I12_92n" "vrand2"
"I12_93v" "I12<93>"
"I12_93n" "vrand2"
"I12_94v" "I12<94>"
"I12_94n" "vrand2"
"I12_95v" "I12<95>"
"I12_95n" "vrand2"
"I12_96v" "I12<96>"
"I12_96n" "vrand2"
"I12_97v" "I12<97>"
"I12_97n" "vrand2"
"I12_98v" "I12<98>"
"I12_98n" "vrand2"
"I12_99v" "I12<99>"
"I12_99n" "vrand2"
"I12_100v" "I12<100>"
"I12_100n" "vrand2"
"I12_101v" "I12<101>"
"I12_101n" "vrand2"
"I12_102v" "I12<102>"
"I12_102n" "vrand2"
"I12_103v" "I12<103>"
"I12_103n" "vrand2"
"I12_104v" "I12<104>"
"I12_104n" "vrand2"
"I12_105v" "I12<105>"
"I12_105n" "vrand2"
"I12_106v" "I12<106>"
"I12_106n" "vrand2"
"I12_107v" "I12<107>"
"I12_107n" "vrand2"
"I12_108v" "I12<108>"
"I12_108n" "vrand2"
"I12_109v" "I12<109>"
"I12_109n" "vrand2"
"I12_110v" "I12<110>"
"I12_110n" "vrand2"
"I12_111v" "I12<111>"
"I12_111n" "vrand2"
"I12_112v" "I12<112>"
"I12_112n" "vrand2"
"I12_113v" "I12<113>"
"I12_113n" "vrand2"
"I12_114v" "I12<114>"
"I12_114n" "vrand2"
"I12_115v" "I12<115>"
"I12_115n" "vrand2"
"I12_116v" "I12<116>"
"I12_116n" "vrand2"
"I12_117v" "I12<117>"
"I12_117n" "vrand2"
"I12_118v" "I12<118>"
"I12_118n" "vrand2"
"I12_119v" "I12<119>"
"I12_119n" "vrand2"
"I12_120v" "I12<120>"
"I12_120n" "vrand2"
"I12_121v" "I12<121>"
"I12_121n" "vrand2"
"I12_122v" "I12<122>"
"I12_122n" "vrand2"
"I12_123v" "I12<123>"
"I12_123n" "vrand2"
"I12_124v" "I12<124>"
"I12_124n" "vrand2"
"I12_125v" "I12<125>"
"I12_125n" "vrand2"
"I12_126v" "I12<126>"
"I12_126n" "vrand2"
"I12_127v" "I12<127>"
"I12_127n" "vrand2"
"I12_128v" "I12<128>"
"I12_128n" "vrand2"
"I12_129v" "I12<129>"
"I12_129n" "vrand2"
"I12_130v" "I12<130>"
"I12_130n" "vrand2"
"I12_131v" "I12<131>"
"I12_131n" "vrand2"
"I12_132v" "I12<132>"
"I12_132n" "vrand2"
"I12_133v" "I12<133>"
"I12_133n" "vrand2"
"I12_134v" "I12<134>"
"I12_134n" "vrand2"
"I12_135v" "I12<135>"
"I12_135n" "vrand2"
"I12_136v" "I12<136>"
"I12_136n" "vrand2"
"I12_137v" "I12<137>"
"I12_137n" "vrand2"
"I12_138v" "I12<138>"
"I12_138n" "vrand2"
"I12_139v" "I12<139>"
"I12_139n" "vrand2"
"I12_140v" "I12<140>"
"I12_140n" "vrand2"
"I12_141v" "I12<141>"
"I12_141n" "vrand2"
"I12_142v" "I12<142>"
"I12_142n" "vrand2"
"I12_143v" "I12<143>"
"I12_143n" "vrand2"
"I12_144v" "I12<144>"
"I12_144n" "vrand2"
"I12_145v" "I12<145>"
"I12_145n" "vrand2"
"I12_146v" "I12<146>"
"I12_146n" "vrand2"
"I12_147v" "I12<147>"
"I12_147n" "vrand2"
"I12_148v" "I12<148>"
"I12_148n" "vrand2"
"I12_149v" "I12<149>"
"I12_149n" "vrand2"
"I12_150v" "I12<150>"
"I12_150n" "vrand2"
"I12_151v" "I12<151>"
"I12_151n" "vrand2"
"I12_152v" "I12<152>"
"I12_152n" "vrand2"
"I12_153v" "I12<153>"
"I12_153n" "vrand2"
"I12_154v" "I12<154>"
"I12_154n" "vrand2"
"I12_155v" "I12<155>"
"I12_155n" "vrand2"
"I12_156v" "I12<156>"
"I12_156n" "vrand2"
"I12_157v" "I12<157>"
"I12_157n" "vrand2"
"I12_158v" "I12<158>"
"I12_158n" "vrand2"
"I12_159v" "I12<159>"
"I12_159n" "vrand2"
"I12_160v" "I12<160>"
"I12_160n" "vrand2"
"I12_161v" "I12<161>"
"I12_161n" "vrand2"
"I12_162v" "I12<162>"
"I12_162n" "vrand2"
"I12_163v" "I12<163>"
"I12_163n" "vrand2"
"I12_164v" "I12<164>"
"I12_164n" "vrand2"
"I12_165v" "I12<165>"
"I12_165n" "vrand2"
"I12_166v" "I12<166>"
"I12_166n" "vrand2"
"I12_167v" "I12<167>"
"I12_167n" "vrand2"
"I12_168v" "I12<168>"
"I12_168n" "vrand2"
"I12_169v" "I12<169>"
"I12_169n" "vrand2"
"I12_170v" "I12<170>"
"I12_170n" "vrand2"
"I12_171v" "I12<171>"
"I12_171n" "vrand2"
"I12_172v" "I12<172>"
"I12_172n" "vrand2"
"I12_173v" "I12<173>"
"I12_173n" "vrand2"
"I12_174v" "I12<174>"
"I12_174n" "vrand2"
"I12_175v" "I12<175>"
"I12_175n" "vrand2"
"I12_176v" "I12<176>"
"I12_176n" "vrand2"
"I12_177v" "I12<177>"
"I12_177n" "vrand2"
"I12_178v" "I12<178>"
"I12_178n" "vrand2"
"I12_179v" "I12<179>"
"I12_179n" "vrand2"
"I12_180v" "I12<180>"
"I12_180n" "vrand2"
"I12_181v" "I12<181>"
"I12_181n" "vrand2"
"I12_182v" "I12<182>"
"I12_182n" "vrand2"
"I12_183v" "I12<183>"
"I12_183n" "vrand2"
"I12_184v" "I12<184>"
"I12_184n" "vrand2"
"I12_185v" "I12<185>"
"I12_185n" "vrand2"
"I12_186v" "I12<186>"
"I12_186n" "vrand2"
"I12_187v" "I12<187>"
"I12_187n" "vrand2"
"I12_188v" "I12<188>"
"I12_188n" "vrand2"
"I12_189v" "I12<189>"
"I12_189n" "vrand2"
"I12_190v" "I12<190>"
"I12_190n" "vrand2"
"I12_191v" "I12<191>"
"I12_191n" "vrand2"
"I12_192v" "I12<192>"
"I12_192n" "vrand2"
"I12_193v" "I12<193>"
"I12_193n" "vrand2"
"I12_194v" "I12<194>"
"I12_194n" "vrand2"
"I12_195v" "I12<195>"
"I12_195n" "vrand2"
"I12_196v" "I12<196>"
"I12_196n" "vrand2"
"I12_197v" "I12<197>"
"I12_197n" "vrand2"
"I12_198v" "I12<198>"
"I12_198n" "vrand2"
"I12_199v" "I12<199>"
"I12_199n" "vrand2"
"I12_200v" "I12<200>"
"I12_200n" "vrand2"
"I12_201v" "I12<201>"
"I12_201n" "vrand2"
"I12_202v" "I12<202>"
"I12_202n" "vrand2"
"I12_203v" "I12<203>"
"I12_203n" "vrand2"
"I12_204v" "I12<204>"
"I12_204n" "vrand2"
"I12_205v" "I12<205>"
"I12_205n" "vrand2"
"I12_206v" "I12<206>"
"I12_206n" "vrand2"
"I12_207v" "I12<207>"
"I12_207n" "vrand2"
"I12_208v" "I12<208>"
"I12_208n" "vrand2"
"I12_209v" "I12<209>"
"I12_209n" "vrand2"
"I12_210v" "I12<210>"
"I12_210n" "vrand2"
"I12_211v" "I12<211>"
"I12_211n" "vrand2"
"I12_212v" "I12<212>"
"I12_212n" "vrand2"
"I12_213v" "I12<213>"
"I12_213n" "vrand2"
"I12_214v" "I12<214>"
"I12_214n" "vrand2"
"I12_215v" "I12<215>"
"I12_215n" "vrand2"
"I12_216v" "I12<216>"
"I12_216n" "vrand2"
"I12_217v" "I12<217>"
"I12_217n" "vrand2"
"I12_218v" "I12<218>"
"I12_218n" "vrand2"
"I12_219v" "I12<219>"
"I12_219n" "vrand2"
"I12_220v" "I12<220>"
"I12_220n" "vrand2"
"I12_221v" "I12<221>"
"I12_221n" "vrand2"
"I12_222v" "I12<222>"
"I12_222n" "vrand2"
"I12_223v" "I12<223>"
"I12_223n" "vrand2"
"I12_224v" "I12<224>"
"I12_224n" "vrand2"
"I12_225v" "I12<225>"
"I12_225n" "vrand2"
"I12_226v" "I12<226>"
"I12_226n" "vrand2"
"I12_227v" "I12<227>"
"I12_227n" "vrand2"
"I12_228v" "I12<228>"
"I12_228n" "vrand2"
"I12_229v" "I12<229>"
"I12_229n" "vrand2"
"I12_230v" "I12<230>"
"I12_230n" "vrand2"
"I12_231v" "I12<231>"
"I12_231n" "vrand2"
"I12_232v" "I12<232>"
"I12_232n" "vrand2"
"I12_233v" "I12<233>"
"I12_233n" "vrand2"
"I12_234v" "I12<234>"
"I12_234n" "vrand2"
"I12_235v" "I12<235>"
"I12_235n" "vrand2"
"I12_236v" "I12<236>"
"I12_236n" "vrand2"
"I12_237v" "I12<237>"
"I12_237n" "vrand2"
"I12_238v" "I12<238>"
"I12_238n" "vrand2"
"I12_239v" "I12<239>"
"I12_239n" "vrand2"
"I12_240v" "I12<240>"
"I12_240n" "vrand2"
"I12_241v" "I12<241>"
"I12_241n" "vrand2"
"I12_242v" "I12<242>"
"I12_242n" "vrand2"
"I12_243v" "I12<243>"
"I12_243n" "vrand2"
"I12_244v" "I12<244>"
"I12_244n" "vrand2"
"I12_245v" "I12<245>"
"I12_245n" "vrand2"
"I12_246v" "I12<246>"
"I12_246n" "vrand2"
"I12_247v" "I12<247>"
"I12_247n" "vrand2"
"I12_248v" "I12<248>"
"I12_248n" "vrand2"
"I12_249v" "I12<249>"
"I12_249n" "vrand2"
"I12_250v" "I12<250>"
"I12_250n" "vrand2"
"I12_251v" "I12<251>"
"I12_251n" "vrand2"
"I12_252v" "I12<252>"
"I12_252n" "vrand2"
"I12_253v" "I12<253>"
"I12_253n" "vrand2"
"I12_254v" "I12<254>"
"I12_254n" "vrand2"
"I12_255v" "I12<255>"
"I12_255n" "vrand2"
"I12_256v" "I12<256>"
"I12_256n" "vrand2"
"I12_257v" "I12<257>"
"I12_257n" "vrand2"
"I12_258v" "I12<258>"
"I12_258n" "vrand2"
"I12_259v" "I12<259>"
"I12_259n" "vrand2"
"I12_260v" "I12<260>"
"I12_260n" "vrand2"
"I12_261v" "I12<261>"
"I12_261n" "vrand2"
"I12_262v" "I12<262>"
"I12_262n" "vrand2"
"I12_263v" "I12<263>"
"I12_263n" "vrand2"
"I12_264v" "I12<264>"
"I12_264n" "vrand2"
"I12_265v" "I12<265>"
"I12_265n" "vrand2"
"I12_266v" "I12<266>"
"I12_266n" "vrand2"
"I12_267v" "I12<267>"
"I12_267n" "vrand2"
"I12_268v" "I12<268>"
"I12_268n" "vrand2"
"I12_269v" "I12<269>"
"I12_269n" "vrand2"
"I12_270v" "I12<270>"
"I12_270n" "vrand2"
"I12_271v" "I12<271>"
"I12_271n" "vrand2"
"I12_272v" "I12<272>"
"I12_272n" "vrand2"
"I12_273v" "I12<273>"
"I12_273n" "vrand2"
"I12_274v" "I12<274>"
"I12_274n" "vrand2"
"I12_275v" "I12<275>"
"I12_275n" "vrand2"
"I12_276v" "I12<276>"
"I12_276n" "vrand2"
"I12_277v" "I12<277>"
"I12_277n" "vrand2"
"I12_278v" "I12<278>"
"I12_278n" "vrand2"
"I12_279v" "I12<279>"
"I12_279n" "vrand2"
"I12_280v" "I12<280>"
"I12_280n" "vrand2"
"I12_281v" "I12<281>"
"I12_281n" "vrand2"
"I12_282v" "I12<282>"
"I12_282n" "vrand2"
"I12_283v" "I12<283>"
"I12_283n" "vrand2"
"I12_284v" "I12<284>"
"I12_284n" "vrand2"
"I12_285v" "I12<285>"
"I12_285n" "vrand2"
"I12_286v" "I12<286>"
"I12_286n" "vrand2"
"I12_287v" "I12<287>"
"I12_287n" "vrand2"
"I12_288v" "I12<288>"
"I12_288n" "vrand2"
"I12_289v" "I12<289>"
"I12_289n" "vrand2"
"I12_290v" "I12<290>"
"I12_290n" "vrand2"
"I12_291v" "I12<291>"
"I12_291n" "vrand2"
"I12_292v" "I12<292>"
"I12_292n" "vrand2"
"I12_293v" "I12<293>"
"I12_293n" "vrand2"
"I12_294v" "I12<294>"
"I12_294n" "vrand2"
"I12_295v" "I12<295>"
"I12_295n" "vrand2"
"I12_296v" "I12<296>"
"I12_296n" "vrand2"
"I12_297v" "I12<297>"
"I12_297n" "vrand2"
"I12_298v" "I12<298>"
"I12_298n" "vrand2"
"I12_299v" "I12<299>"
"I12_299n" "vrand2"
"I12_300v" "I12<300>"
"I12_300n" "vrand2"
"I12_301v" "I12<301>"
"I12_301n" "vrand2"
"I12_302v" "I12<302>"
"I12_302n" "vrand2"
"I12_303v" "I12<303>"
"I12_303n" "vrand2"
"I12_304v" "I12<304>"
"I12_304n" "vrand2"
"I12_305v" "I12<305>"
"I12_305n" "vrand2"
"I12_306v" "I12<306>"
"I12_306n" "vrand2"
"I12_307v" "I12<307>"
"I12_307n" "vrand2"
"I12_308v" "I12<308>"
"I12_308n" "vrand2"
"I12_309v" "I12<309>"
"I12_309n" "vrand2"
"I12_310v" "I12<310>"
"I12_310n" "vrand2"
"I12_311v" "I12<311>"
"I12_311n" "vrand2"
"I12_312v" "I12<312>"
"I12_312n" "vrand2"
"I12_313v" "I12<313>"
"I12_313n" "vrand2"
"I12_314v" "I12<314>"
"I12_314n" "vrand2"
"I12_315v" "I12<315>"
"I12_315n" "vrand2"
"I12_316v" "I12<316>"
"I12_316n" "vrand2"
"I12_317v" "I12<317>"
"I12_317n" "vrand2"
"I12_318v" "I12<318>"
"I12_318n" "vrand2"
"I12_319v" "I12<319>"
"I12_319n" "vrand2"
"I12_320v" "I12<320>"
"I12_320n" "vrand2"
"I12_321v" "I12<321>"
"I12_321n" "vrand2"
"I12_322v" "I12<322>"
"I12_322n" "vrand2"
"I12_323v" "I12<323>"
"I12_323n" "vrand2"
"I12_324v" "I12<324>"
"I12_324n" "vrand2"
"I12_325v" "I12<325>"
"I12_325n" "vrand2"
"I12_326v" "I12<326>"
"I12_326n" "vrand2"
"I12_327v" "I12<327>"
"I12_327n" "vrand2"
"I12_328v" "I12<328>"
"I12_328n" "vrand2"
"I12_329v" "I12<329>"
"I12_329n" "vrand2"
"I12_330v" "I12<330>"
"I12_330n" "vrand2"
"I12_331v" "I12<331>"
"I12_331n" "vrand2"
"I12_332v" "I12<332>"
"I12_332n" "vrand2"
"I12_333v" "I12<333>"
"I12_333n" "vrand2"
"I12_334v" "I12<334>"
"I12_334n" "vrand2"
"I12_335v" "I12<335>"
"I12_335n" "vrand2"
"I12_336v" "I12<336>"
"I12_336n" "vrand2"
"I12_337v" "I12<337>"
"I12_337n" "vrand2"
"I12_338v" "I12<338>"
"I12_338n" "vrand2"
"I12_339v" "I12<339>"
"I12_339n" "vrand2"
"I12_340v" "I12<340>"
"I12_340n" "vrand2"
"I12_341v" "I12<341>"
"I12_341n" "vrand2"
"I12_342v" "I12<342>"
"I12_342n" "vrand2"
"I12_343v" "I12<343>"
"I12_343n" "vrand2"
"I12_344v" "I12<344>"
"I12_344n" "vrand2"
"I12_345v" "I12<345>"
"I12_345n" "vrand2"
"I12_346v" "I12<346>"
"I12_346n" "vrand2"
"I12_347v" "I12<347>"
"I12_347n" "vrand2"
"I12_348v" "I12<348>"
"I12_348n" "vrand2"
"I12_349v" "I12<349>"
"I12_349n" "vrand2"
"I12_350v" "I12<350>"
"I12_350n" "vrand2"
"I12_351v" "I12<351>"
"I12_351n" "vrand2"
"I12_352v" "I12<352>"
"I12_352n" "vrand2"
"I12_353v" "I12<353>"
"I12_353n" "vrand2"
"I12_354v" "I12<354>"
"I12_354n" "vrand2"
"I12_355v" "I12<355>"
"I12_355n" "vrand2"
"I12_356v" "I12<356>"
"I12_356n" "vrand2"
"I12_357v" "I12<357>"
"I12_357n" "vrand2"
"I12_358v" "I12<358>"
"I12_358n" "vrand2"
"I12_359v" "I12<359>"
"I12_359n" "vrand2"
"I12_360v" "I12<360>"
"I12_360n" "vrand2"
"I12_361v" "I12<361>"
"I12_361n" "vrand2"
"I12_362v" "I12<362>"
"I12_362n" "vrand2"
"I12_363v" "I12<363>"
"I12_363n" "vrand2"
"I12_364v" "I12<364>"
"I12_364n" "vrand2"
"I12_365v" "I12<365>"
"I12_365n" "vrand2"
"I12_366v" "I12<366>"
"I12_366n" "vrand2"
"I12_367v" "I12<367>"
"I12_367n" "vrand2"
"I12_368v" "I12<368>"
"I12_368n" "vrand2"
"I12_369v" "I12<369>"
"I12_369n" "vrand2"
"I12_370v" "I12<370>"
"I12_370n" "vrand2"
"I12_371v" "I12<371>"
"I12_371n" "vrand2"
"I12_372v" "I12<372>"
"I12_372n" "vrand2"
"I12_373v" "I12<373>"
"I12_373n" "vrand2"
"I12_374v" "I12<374>"
"I12_374n" "vrand2"
"I12_375v" "I12<375>"
"I12_375n" "vrand2"
"I12_376v" "I12<376>"
"I12_376n" "vrand2"
"I12_377v" "I12<377>"
"I12_377n" "vrand2"
"I12_378v" "I12<378>"
"I12_378n" "vrand2"
"I12_379v" "I12<379>"
"I12_379n" "vrand2"
"I12_380v" "I12<380>"
"I12_380n" "vrand2"
"I12_381v" "I12<381>"
"I12_381n" "vrand2"
"I12_382v" "I12<382>"
"I12_382n" "vrand2"
"I12_383v" "I12<383>"
"I12_383n" "vrand2"
"I12_384v" "I12<384>"
"I12_384n" "vrand2"
"I12_385v" "I12<385>"
"I12_385n" "vrand2"
"I12_386v" "I12<386>"
"I12_386n" "vrand2"
"I12_387v" "I12<387>"
"I12_387n" "vrand2"
"I12_388v" "I12<388>"
"I12_388n" "vrand2"
"I12_389v" "I12<389>"
"I12_389n" "vrand2"
"I12_390v" "I12<390>"
"I12_390n" "vrand2"
"I12_391v" "I12<391>"
"I12_391n" "vrand2"
"I12_392v" "I12<392>"
"I12_392n" "vrand2"
"I12_393v" "I12<393>"
"I12_393n" "vrand2"
"I12_394v" "I12<394>"
"I12_394n" "vrand2"
"I12_395v" "I12<395>"
"I12_395n" "vrand2"
"I12_396v" "I12<396>"
"I12_396n" "vrand2"
"I12_397v" "I12<397>"
"I12_397n" "vrand2"
"I12_398v" "I12<398>"
"I12_398n" "vrand2"
"I12_399v" "I12<399>"
"I12_399n" "vrand2"
"I12_400v" "I12<400>"
"I12_400n" "vrand2"
"I12_401v" "I12<401>"
"I12_401n" "vrand2"
"I12_402v" "I12<402>"
"I12_402n" "vrand2"
"I12_403v" "I12<403>"
"I12_403n" "vrand2"
"I12_404v" "I12<404>"
"I12_404n" "vrand2"
"I12_405v" "I12<405>"
"I12_405n" "vrand2"
"I12_406v" "I12<406>"
"I12_406n" "vrand2"
"I12_407v" "I12<407>"
"I12_407n" "vrand2"
"I12_408v" "I12<408>"
"I12_408n" "vrand2"
"I12_409v" "I12<409>"
"I12_409n" "vrand2"
"I12_410v" "I12<410>"
"I12_410n" "vrand2"
"I12_411v" "I12<411>"
"I12_411n" "vrand2"
"I12_412v" "I12<412>"
"I12_412n" "vrand2"
"I12_413v" "I12<413>"
"I12_413n" "vrand2"
"I12_414v" "I12<414>"
"I12_414n" "vrand2"
"I12_415v" "I12<415>"
"I12_415n" "vrand2"
"I12_416v" "I12<416>"
"I12_416n" "vrand2"
"I12_417v" "I12<417>"
"I12_417n" "vrand2"
"I12_418v" "I12<418>"
"I12_418n" "vrand2"
"I12_419v" "I12<419>"
"I12_419n" "vrand2"
"I12_420v" "I12<420>"
"I12_420n" "vrand2"
"I12_421v" "I12<421>"
"I12_421n" "vrand2"
"I12_422v" "I12<422>"
"I12_422n" "vrand2"
"I12_423v" "I12<423>"
"I12_423n" "vrand2"
"I12_424v" "I12<424>"
"I12_424n" "vrand2"
"I12_425v" "I12<425>"
"I12_425n" "vrand2"
"I12_426v" "I12<426>"
"I12_426n" "vrand2"
"I12_427v" "I12<427>"
"I12_427n" "vrand2"
"I12_428v" "I12<428>"
"I12_428n" "vrand2"
"I12_429v" "I12<429>"
"I12_429n" "vrand2"
"I12_430v" "I12<430>"
"I12_430n" "vrand2"
"I12_431v" "I12<431>"
"I12_431n" "vrand2"
"I12_432v" "I12<432>"
"I12_432n" "vrand2"
"I12_433v" "I12<433>"
"I12_433n" "vrand2"
"I12_434v" "I12<434>"
"I12_434n" "vrand2"
"I12_435v" "I12<435>"
"I12_435n" "vrand2"
"I12_436v" "I12<436>"
"I12_436n" "vrand2"
"I12_437v" "I12<437>"
"I12_437n" "vrand2"
"I12_438v" "I12<438>"
"I12_438n" "vrand2"
"I12_439v" "I12<439>"
"I12_439n" "vrand2"
"I12_440v" "I12<440>"
"I12_440n" "vrand2"
"I12_441v" "I12<441>"
"I12_441n" "vrand2"
"I12_442v" "I12<442>"
"I12_442n" "vrand2"
"I12_443v" "I12<443>"
"I12_443n" "vrand2"
"I12_444v" "I12<444>"
"I12_444n" "vrand2"
"I12_445v" "I12<445>"
"I12_445n" "vrand2"
"I12_446v" "I12<446>"
"I12_446n" "vrand2"
"I12_447v" "I12<447>"
"I12_447n" "vrand2"
"I12_448v" "I12<448>"
"I12_448n" "vrand2"
"I12_449v" "I12<449>"
"I12_449n" "vrand2"
"I12_450v" "I12<450>"
"I12_450n" "vrand2"
"I12_451v" "I12<451>"
"I12_451n" "vrand2"
"I12_452v" "I12<452>"
"I12_452n" "vrand2"
"I12_453v" "I12<453>"
"I12_453n" "vrand2"
"I12_454v" "I12<454>"
"I12_454n" "vrand2"
"I12_455v" "I12<455>"
"I12_455n" "vrand2"
"I12_456v" "I12<456>"
"I12_456n" "vrand2"
"I12_457v" "I12<457>"
"I12_457n" "vrand2"
"I12_458v" "I12<458>"
"I12_458n" "vrand2"
"I12_459v" "I12<459>"
"I12_459n" "vrand2"
"I12_460v" "I12<460>"
"I12_460n" "vrand2"
"I12_461v" "I12<461>"
"I12_461n" "vrand2"
"I12_462v" "I12<462>"
"I12_462n" "vrand2"
"I12_463v" "I12<463>"
"I12_463n" "vrand2"
"I12_464v" "I12<464>"
"I12_464n" "vrand2"
"I12_465v" "I12<465>"
"I12_465n" "vrand2"
"I12_466v" "I12<466>"
"I12_466n" "vrand2"
"I12_467v" "I12<467>"
"I12_467n" "vrand2"
"I12_468v" "I12<468>"
"I12_468n" "vrand2"
"I12_469v" "I12<469>"
"I12_469n" "vrand2"
"I12_470v" "I12<470>"
"I12_470n" "vrand2"
"I12_471v" "I12<471>"
"I12_471n" "vrand2"
"I12_472v" "I12<472>"
"I12_472n" "vrand2"
"I12_473v" "I12<473>"
"I12_473n" "vrand2"
"I12_474v" "I12<474>"
"I12_474n" "vrand2"
"I12_475v" "I12<475>"
"I12_475n" "vrand2"
"I12_476v" "I12<476>"
"I12_476n" "vrand2"
"I12_477v" "I12<477>"
"I12_477n" "vrand2"
"I12_478v" "I12<478>"
"I12_478n" "vrand2"
"I12_479v" "I12<479>"
"I12_479n" "vrand2"
"I12_480v" "I12<480>"
"I12_480n" "vrand2"
"I12_481v" "I12<481>"
"I12_481n" "vrand2"
"I12_482v" "I12<482>"
"I12_482n" "vrand2"
"I12_483v" "I12<483>"
"I12_483n" "vrand2"
"I12_484v" "I12<484>"
"I12_484n" "vrand2"
"I12_485v" "I12<485>"
"I12_485n" "vrand2"
"I12_486v" "I12<486>"
"I12_486n" "vrand2"
"I12_487v" "I12<487>"
"I12_487n" "vrand2"
"I12_488v" "I12<488>"
"I12_488n" "vrand2"
"I12_489v" "I12<489>"
"I12_489n" "vrand2"
"I12_490v" "I12<490>"
"I12_490n" "vrand2"
"I12_491v" "I12<491>"
"I12_491n" "vrand2"
"I12_492v" "I12<492>"
"I12_492n" "vrand2"
"I12_493v" "I12<493>"
"I12_493n" "vrand2"
"I12_494v" "I12<494>"
"I12_494n" "vrand2"
"I12_495v" "I12<495>"
"I12_495n" "vrand2"
"I12_496v" "I12<496>"
"I12_496n" "vrand2"
"I12_497v" "I12<497>"
"I12_497n" "vrand2"
"I12_498v" "I12<498>"
"I12_498n" "vrand2"
"I12_499v" "I12<499>"
"I12_499n" "vrand2"
"I12_500v" "I12<500>"
"I12_500n" "vrand2"
"I12_501v" "I12<501>"
"I12_501n" "vrand2"
"I12_502v" "I12<502>"
"I12_502n" "vrand2"
"I12_503v" "I12<503>"
"I12_503n" "vrand2"
"I12_504v" "I12<504>"
"I12_504n" "vrand2"
"I12_505v" "I12<505>"
"I12_505n" "vrand2"
"I12_506v" "I12<506>"
"I12_506n" "vrand2"
"I12_507v" "I12<507>"
"I12_507n" "vrand2"
"I12_508v" "I12<508>"
"I12_508n" "vrand2"
"I12_509v" "I12<509>"
"I12_509n" "vrand2"
"I12_510v" "I12<510>"
"I12_510n" "vrand2"
"I12_511v" "I12<511>"
"I12_511n" "vrand2"
"I12_512v" "I12<512>"
"I12_512n" "vrand2"
"I12_513v" "I12<513>"
"I12_513n" "vrand2"
"I12_514v" "I12<514>"
"I12_514n" "vrand2"
"I12_515v" "I12<515>"
"I12_515n" "vrand2"
"I12_516v" "I12<516>"
"I12_516n" "vrand2"
"I12_517v" "I12<517>"
"I12_517n" "vrand2"
"I12_518v" "I12<518>"
"I12_518n" "vrand2"
"I12_519v" "I12<519>"
"I12_519n" "vrand2"
"I12_520v" "I12<520>"
"I12_520n" "vrand2"
"I12_521v" "I12<521>"
"I12_521n" "vrand2"
"I12_522v" "I12<522>"
"I12_522n" "vrand2"
"I12_523v" "I12<523>"
"I12_523n" "vrand2"
"I12_524v" "I12<524>"
"I12_524n" "vrand2"
"I12_525v" "I12<525>"
"I12_525n" "vrand2"
"I12_526v" "I12<526>"
"I12_526n" "vrand2"
"I12_527v" "I12<527>"
"I12_527n" "vrand2"
"I12_528v" "I12<528>"
"I12_528n" "vrand2"
"I12_529v" "I12<529>"
"I12_529n" "vrand2"
"I12_530v" "I12<530>"
"I12_530n" "vrand2"
"I12_531v" "I12<531>"
"I12_531n" "vrand2"
"I12_532v" "I12<532>"
"I12_532n" "vrand2"
"I12_533v" "I12<533>"
"I12_533n" "vrand2"
"I12_534v" "I12<534>"
"I12_534n" "vrand2"
"I12_535v" "I12<535>"
"I12_535n" "vrand2"
"I12_536v" "I12<536>"
"I12_536n" "vrand2"
"I12_537v" "I12<537>"
"I12_537n" "vrand2"
"I12_538v" "I12<538>"
"I12_538n" "vrand2"
"I12_539v" "I12<539>"
"I12_539n" "vrand2"
"I12_540v" "I12<540>"
"I12_540n" "vrand2"
"I12_541v" "I12<541>"
"I12_541n" "vrand2"
"I12_542v" "I12<542>"
"I12_542n" "vrand2"
"I12_543v" "I12<543>"
"I12_543n" "vrand2"
"I12_544v" "I12<544>"
"I12_544n" "vrand2"
"I12_545v" "I12<545>"
"I12_545n" "vrand2"
"I12_546v" "I12<546>"
"I12_546n" "vrand2"
"I12_547v" "I12<547>"
"I12_547n" "vrand2"
"I12_548v" "I12<548>"
"I12_548n" "vrand2"
"I12_549v" "I12<549>"
"I12_549n" "vrand2"
"I12_550v" "I12<550>"
"I12_550n" "vrand2"
"I12_551v" "I12<551>"
"I12_551n" "vrand2"
"I12_552v" "I12<552>"
"I12_552n" "vrand2"
"I12_553v" "I12<553>"
"I12_553n" "vrand2"
"I12_554v" "I12<554>"
"I12_554n" "vrand2"
"I12_555v" "I12<555>"
"I12_555n" "vrand2"
"I12_556v" "I12<556>"
"I12_556n" "vrand2"
"I12_557v" "I12<557>"
"I12_557n" "vrand2"
"I12_558v" "I12<558>"
"I12_558n" "vrand2"
"I12_559v" "I12<559>"
"I12_559n" "vrand2"
"I12_560v" "I12<560>"
"I12_560n" "vrand2"
"I12_561v" "I12<561>"
"I12_561n" "vrand2"
"I12_562v" "I12<562>"
"I12_562n" "vrand2"
"I12_563v" "I12<563>"
"I12_563n" "vrand2"
"I12_564v" "I12<564>"
"I12_564n" "vrand2"
"I12_565v" "I12<565>"
"I12_565n" "vrand2"
"I12_566v" "I12<566>"
"I12_566n" "vrand2"
"I12_567v" "I12<567>"
"I12_567n" "vrand2"
"I12_568v" "I12<568>"
"I12_568n" "vrand2"
"I12_569v" "I12<569>"
"I12_569n" "vrand2"
"I12_570v" "I12<570>"
"I12_570n" "vrand2"
"I12_571v" "I12<571>"
"I12_571n" "vrand2"
"I12_572v" "I12<572>"
"I12_572n" "vrand2"
"I12_573v" "I12<573>"
"I12_573n" "vrand2"
"I12_574v" "I12<574>"
"I12_574n" "vrand2"
"I12_575v" "I12<575>"
"I12_575n" "vrand2"
"I12_576v" "I12<576>"
"I12_576n" "vrand2"
"I12_577v" "I12<577>"
"I12_577n" "vrand2"
"I12_578v" "I12<578>"
"I12_578n" "vrand2"
"I12_579v" "I12<579>"
"I12_579n" "vrand2"
"I12_580v" "I12<580>"
"I12_580n" "vrand2"
"I12_581v" "I12<581>"
"I12_581n" "vrand2"
"I12_582v" "I12<582>"
"I12_582n" "vrand2"
"I12_583v" "I12<583>"
"I12_583n" "vrand2"
"I12_584v" "I12<584>"
"I12_584n" "vrand2"
"I12_585v" "I12<585>"
"I12_585n" "vrand2"
"I12_586v" "I12<586>"
"I12_586n" "vrand2"
"I12_587v" "I12<587>"
"I12_587n" "vrand2"
"I12_588v" "I12<588>"
"I12_588n" "vrand2"
"I12_589v" "I12<589>"
"I12_589n" "vrand2"
"I12_590v" "I12<590>"
"I12_590n" "vrand2"
"I12_591v" "I12<591>"
"I12_591n" "vrand2"
"I12_592v" "I12<592>"
"I12_592n" "vrand2"
"I12_593v" "I12<593>"
"I12_593n" "vrand2"
"I12_594v" "I12<594>"
"I12_594n" "vrand2"
"I12_595v" "I12<595>"
"I12_595n" "vrand2"
"I12_596v" "I12<596>"
"I12_596n" "vrand2"
"I12_597v" "I12<597>"
"I12_597n" "vrand2"
"I12_598v" "I12<598>"
"I12_598n" "vrand2"
"I12_599v" "I12<599>"
"I12_599n" "vrand2"
"I12_600v" "I12<600>"
"I12_600n" "vrand2"
"I12_601v" "I12<601>"
"I12_601n" "vrand2"
"I12_602v" "I12<602>"
"I12_602n" "vrand2"
"I12_603v" "I12<603>"
"I12_603n" "vrand2"
"I12_604v" "I12<604>"
"I12_604n" "vrand2"
"I12_605v" "I12<605>"
"I12_605n" "vrand2"
"I12_606v" "I12<606>"
"I12_606n" "vrand2"
"I12_607v" "I12<607>"
"I12_607n" "vrand2"
"I12_608v" "I12<608>"
"I12_608n" "vrand2"
"I12_609v" "I12<609>"
"I12_609n" "vrand2"
"I12_610v" "I12<610>"
"I12_610n" "vrand2"
"I12_611v" "I12<611>"
"I12_611n" "vrand2"
"I12_612v" "I12<612>"
"I12_612n" "vrand2"
"I12_613v" "I12<613>"
"I12_613n" "vrand2"
"I12_614v" "I12<614>"
"I12_614n" "vrand2"
"I12_615v" "I12<615>"
"I12_615n" "vrand2"
"I12_616v" "I12<616>"
"I12_616n" "vrand2"
"I12_617v" "I12<617>"
"I12_617n" "vrand2"
"I12_618v" "I12<618>"
"I12_618n" "vrand2"
"I12_619v" "I12<619>"
"I12_619n" "vrand2"
"I12_620v" "I12<620>"
"I12_620n" "vrand2"
"I12_621v" "I12<621>"
"I12_621n" "vrand2"
"I12_622v" "I12<622>"
"I12_622n" "vrand2"
"I12_623v" "I12<623>"
"I12_623n" "vrand2"
"I12_624v" "I12<624>"
"I12_624n" "vrand2"
"I12_625v" "I12<625>"
"I12_625n" "vrand2"
"I12_626v" "I12<626>"
"I12_626n" "vrand2"
"I12_627v" "I12<627>"
"I12_627n" "vrand2"
"I12_628v" "I12<628>"
"I12_628n" "vrand2"
"I12_629v" "I12<629>"
"I12_629n" "vrand2"
"I12_630v" "I12<630>"
"I12_630n" "vrand2"
"I12_631v" "I12<631>"
"I12_631n" "vrand2"
"I12_632v" "I12<632>"
"I12_632n" "vrand2"
"I12_633v" "I12<633>"
"I12_633n" "vrand2"
"I12_634v" "I12<634>"
"I12_634n" "vrand2"
"I12_635v" "I12<635>"
"I12_635n" "vrand2"
"I12_636v" "I12<636>"
"I12_636n" "vrand2"
"I12_637v" "I12<637>"
"I12_637n" "vrand2"
"I12_638v" "I12<638>"
"I12_638n" "vrand2"
"I12_639v" "I12<639>"
"I12_639n" "vrand2"
"I12_640v" "I12<640>"
"I12_640n" "vrand2"
"I12_641v" "I12<641>"
"I12_641n" "vrand2"
"I12_642v" "I12<642>"
"I12_642n" "vrand2"
"I12_643v" "I12<643>"
"I12_643n" "vrand2"
"I12_644v" "I12<644>"
"I12_644n" "vrand2"
"I12_645v" "I12<645>"
"I12_645n" "vrand2"
"I12_646v" "I12<646>"
"I12_646n" "vrand2"
"I12_647v" "I12<647>"
"I12_647n" "vrand2"
"I12_648v" "I12<648>"
"I12_648n" "vrand2"
"I12_649v" "I12<649>"
"I12_649n" "vrand2"
"I12_650v" "I12<650>"
"I12_650n" "vrand2"
"I12_651v" "I12<651>"
"I12_651n" "vrand2"
"I12_652v" "I12<652>"
"I12_652n" "vrand2"
"I12_653v" "I12<653>"
"I12_653n" "vrand2"
"I12_654v" "I12<654>"
"I12_654n" "vrand2"
"I12_655v" "I12<655>"
"I12_655n" "vrand2"
"I12_656v" "I12<656>"
"I12_656n" "vrand2"
"I12_657v" "I12<657>"
"I12_657n" "vrand2"
"I12_658v" "I12<658>"
"I12_658n" "vrand2"
"I12_659v" "I12<659>"
"I12_659n" "vrand2"
"I12_660v" "I12<660>"
"I12_660n" "vrand2"
"I12_661v" "I12<661>"
"I12_661n" "vrand2"
"I12_662v" "I12<662>"
"I12_662n" "vrand2"
"I12_663v" "I12<663>"
"I12_663n" "vrand2"
"I12_664v" "I12<664>"
"I12_664n" "vrand2"
"I12_665v" "I12<665>"
"I12_665n" "vrand2"
"I12_666v" "I12<666>"
"I12_666n" "vrand2"
"I12_667v" "I12<667>"
"I12_667n" "vrand2"
"I12_668v" "I12<668>"
"I12_668n" "vrand2"
"I12_669v" "I12<669>"
"I12_669n" "vrand2"
"I12_670v" "I12<670>"
"I12_670n" "vrand2"
"I12_671v" "I12<671>"
"I12_671n" "vrand2"
"I12_672v" "I12<672>"
"I12_672n" "vrand2"
"I12_673v" "I12<673>"
"I12_673n" "vrand2"
"I12_674v" "I12<674>"
"I12_674n" "vrand2"
"I12_675v" "I12<675>"
"I12_675n" "vrand2"
"I12_676v" "I12<676>"
"I12_676n" "vrand2"
"I12_677v" "I12<677>"
"I12_677n" "vrand2"
"I12_678v" "I12<678>"
"I12_678n" "vrand2"
"I12_679v" "I12<679>"
"I12_679n" "vrand2"
"I12_680v" "I12<680>"
"I12_680n" "vrand2"
"I12_681v" "I12<681>"
"I12_681n" "vrand2"
"I12_682v" "I12<682>"
"I12_682n" "vrand2"
"I12_683v" "I12<683>"
"I12_683n" "vrand2"
"I12_684v" "I12<684>"
"I12_684n" "vrand2"
"I12_685v" "I12<685>"
"I12_685n" "vrand2"
"I12_686v" "I12<686>"
"I12_686n" "vrand2"
"I12_687v" "I12<687>"
"I12_687n" "vrand2"
"I12_688v" "I12<688>"
"I12_688n" "vrand2"
"I12_689v" "I12<689>"
"I12_689n" "vrand2"
"I12_690v" "I12<690>"
"I12_690n" "vrand2"
"I12_691v" "I12<691>"
"I12_691n" "vrand2"
"I12_692v" "I12<692>"
"I12_692n" "vrand2"
"I12_693v" "I12<693>"
"I12_693n" "vrand2"
"I12_694v" "I12<694>"
"I12_694n" "vrand2"
"I12_695v" "I12<695>"
"I12_695n" "vrand2"
"I12_696v" "I12<696>"
"I12_696n" "vrand2"
"I12_697v" "I12<697>"
"I12_697n" "vrand2"
"I12_698v" "I12<698>"
"I12_698n" "vrand2"
"I12_699v" "I12<699>"
"I12_699n" "vrand2"
"I12_700v" "I12<700>"
"I12_700n" "vrand2"
"I12_701v" "I12<701>"
"I12_701n" "vrand2"
"I12_702v" "I12<702>"
"I12_702n" "vrand2"
"I12_703v" "I12<703>"
"I12_703n" "vrand2"
"I12_704v" "I12<704>"
"I12_704n" "vrand2"
"I12_705v" "I12<705>"
"I12_705n" "vrand2"
"I12_706v" "I12<706>"
"I12_706n" "vrand2"
"I12_707v" "I12<707>"
"I12_707n" "vrand2"
"I12_708v" "I12<708>"
"I12_708n" "vrand2"
"I12_709v" "I12<709>"
"I12_709n" "vrand2"
"I12_710v" "I12<710>"
"I12_710n" "vrand2"
"I12_711v" "I12<711>"
"I12_711n" "vrand2"
"I12_712v" "I12<712>"
"I12_712n" "vrand2"
"I12_713v" "I12<713>"
"I12_713n" "vrand2"
"I12_714v" "I12<714>"
"I12_714n" "vrand2"
"I12_715v" "I12<715>"
"I12_715n" "vrand2"
"I12_716v" "I12<716>"
"I12_716n" "vrand2"
"I12_717v" "I12<717>"
"I12_717n" "vrand2"
"I12_718v" "I12<718>"
"I12_718n" "vrand2"
"I12_719v" "I12<719>"
"I12_719n" "vrand2"
"I12_720v" "I12<720>"
"I12_720n" "vrand2"
"I12_721v" "I12<721>"
"I12_721n" "vrand2"