HEADER
"PSFversion" "1.00"
"vc_1v" "vc<1>"
"vc_2v" "vc<2>"
"vc_3v" "vc<3>"
"vc_4v" "vc<4>"
"vc_5v" "vc<5>"
"vc_6v" "vc<6>"
"vc_7v" "vc<7>"
"vc_8v" "vc<8>"
"vc_9v" "vc<9>"
"vc_10v" "vc<10>"
"vc_11v" "vc<11>"
"vc_12v" "vc<12>"
"vc_13v" "vc<13>"
"vc_14v" "vc<14>"
"vc_15v" "vc<15>"
"vc_16v" "vc<16>"
"Rp_1v" "Rp<1>"
"Rp_2v" "Rp<2>"
"Rp_3v" "Rp<3>"
"Rp_4v" "Rp<4>"
"Rp_5v" "Rp<5>"
"Rp_6v" "Rp<6>"
"Rp_7v" "Rp<7>"
"Rp_8v" "Rp<8>"
"Rp_9v" "Rp<9>"
"Rp_10v" "Rp<10>"
"Rp_11v" "Rp<11>"
"Rp_12v" "Rp<12>"
"Rp_13v" "Rp<13>"
"Rp_14v" "Rp<14>"
"Rp_15v" "Rp<15>"
"Rp_16v" "Rp<16>"
"Rp_17v" "Rp<17>"
"Rp_18v" "Rp<18>"
"Rp_19v" "Rp<19>"
"Rp_20v" "Rp<20>"
"Rp_21v" "Rp<21>"
"Rp_22v" "Rp<22>"
"Rp_23v" "Rp<23>"
"Rp_24v" "Rp<24>"
"Rp_25v" "Rp<25>"
"Rp_26v" "Rp<26>"
"Rp_27v" "Rp<27>"
"Rp_28v" "Rp<28>"
"Rp_29v" "Rp<29>"
"Rp_30v" "Rp<30>"
"Rp_31v" "Rp<31>"
"Rp_32v" "Rp<32>"
"Rp_33v" "Rp<33>"
"Rp_34v" "Rp<34>"
"Rp_35v" "Rp<35>"
"Rp_36v" "Rp<36>"
"Rp_37v" "Rp<37>"
"Rp_38v" "Rp<38>"
"Rp_39v" "Rp<39>"
"Rp_40v" "Rp<40>"
"Rp_41v" "Rp<41>"
"Rp_42v" "Rp<42>"
"Rp_43v" "Rp<43>"
"Rp_44v" "Rp<44>"
"Rp_45v" "Rp<45>"
"Rp_46v" "Rp<46>"
"Rp_47v" "Rp<47>"
"Rp_48v" "Rp<48>"
"Rp_49v" "Rp<49>"
"Rp_50v" "Rp<50>"
"Rp_51v" "Rp<51>"
"Rp_52v" "Rp<52>"
"Rp_53v" "Rp<53>"
"Rp_54v" "Rp<54>"
"Rp_55v" "Rp<55>"
"Rp_56v" "Rp<56>"
"Rp_57v" "Rp<57>"
"Rp_58v" "Rp<58>"
"Rp_59v" "Rp<59>"
"Rp_60v" "Rp<60>"
"Rp_61v" "Rp<61>"
"Rp_62v" "Rp<62>"
"Rp_63v" "Rp<63>"
"Rp_64v" "Rp<64>"
"Rp_65v" "Rp<65>"
"Rp_66v" "Rp<66>"
"Rp_67v" "Rp<67>"
"Rp_68v" "Rp<68>"
"Rp_69v" "Rp<69>"
"Rp_70v" "Rp<70>"
"Rp_71v" "Rp<71>"
"Rp_72v" "Rp<72>"
"Rp_73v" "Rp<73>"
"Rp_74v" "Rp<74>"
"Rp_75v" "Rp<75>"
"Rp_76v" "Rp<76>"
"Rp_77v" "Rp<77>"
"Rp_78v" "Rp<78>"
"Rp_79v" "Rp<79>"
"Rp_80v" "Rp<80>"
"Rp_81v" "Rp<81>"
"Rp_82v" "Rp<82>"
"Rp_83v" "Rp<83>"
"Rp_84v" "Rp<84>"
"Rp_85v" "Rp<85>"
"Rp_86v" "Rp<86>"
"Rp_87v" "Rp<87>"
"Rp_88v" "Rp<88>"
"Rp_89v" "Rp<89>"
"Rp_90v" "Rp<90>"
"Rp_91v" "Rp<91>"
"Rp_92v" "Rp<92>"
"Rp_93v" "Rp<93>"
"Rp_94v" "Rp<94>"
"Rp_95v" "Rp<95>"
"Rp_96v" "Rp<96>"
"Rp_97v" "Rp<97>"
"Rp_98v" "Rp<98>"
"Rp_99v" "Rp<99>"
"Rp_100v" "Rp<100>"
"Rp_101v" "Rp<101>"
"Rp_102v" "Rp<102>"
"Rp_103v" "Rp<103>"
"Rp_104v" "Rp<104>"
"Rp_105v" "Rp<105>"
"Rp_106v" "Rp<106>"
"Rp_107v" "Rp<107>"
"Rp_108v" "Rp<108>"
"Rp_109v" "Rp<109>"
"Rp_110v" "Rp<110>"
"Rp_111v" "Rp<111>"
"Rp_112v" "Rp<112>"
"Rp_113v" "Rp<113>"
"Rp_114v" "Rp<114>"
"Rp_115v" "Rp<115>"
"Rp_116v" "Rp<116>"
"Rp_117v" "Rp<117>"
"Rp_118v" "Rp<118>"
"Rp_119v" "Rp<119>"
"Rp_120v" "Rp<120>"
"Rp_121v" "Rp<121>"
"Rp_122v" "Rp<122>"
"Rp_123v" "Rp<123>"
"Rp_124v" "Rp<124>"
"Rp_125v" "Rp<125>"
"Rp_126v" "Rp<126>"
"Rp_127v" "Rp<127>"
"Rp_128v" "Rp<128>"
"Rp_129v" "Rp<129>"
"Rp_130v" "Rp<130>"
"Rp_131v" "Rp<131>"
"Rp_132v" "Rp<132>"
"Rp_133v" "Rp<133>"
"Rp_134v" "Rp<134>"
"Rp_135v" "Rp<135>"
"Rp_136v" "Rp<136>"
"Rp_137v" "Rp<137>"
"Rp_138v" "Rp<138>"
"Rp_139v" "Rp<139>"
"Rp_140v" "Rp<140>"
"Rp_141v" "Rp<141>"
"Rp_142v" "Rp<142>"
"Rp_143v" "Rp<143>"
"Rp_144v" "Rp<144>"
"Rp_145v" "Rp<145>"
"Rp_146v" "Rp<146>"
"Rp_147v" "Rp<147>"
"Rp_148v" "Rp<148>"
"Rp_149v" "Rp<149>"
"Rp_150v" "Rp<150>"
"Rp_151v" "Rp<151>"
"Rp_152v" "Rp<152>"
"Rp_153v" "Rp<153>"
"Rp_154v" "Rp<154>"
"Rp_155v" "Rp<155>"
"Rp_156v" "Rp<156>"
"Rp_157v" "Rp<157>"
"Rp_158v" "Rp<158>"
"Rp_159v" "Rp<159>"
"Rp_160v" "Rp<160>"
"Rp_161v" "Rp<161>"
"Rp_162v" "Rp<162>"
"Rp_163v" "Rp<163>"
"Rp_164v" "Rp<164>"
"Rp_165v" "Rp<165>"
"Rp_166v" "Rp<166>"
"Rp_167v" "Rp<167>"
"Rp_168v" "Rp<168>"
"Rp_169v" "Rp<169>"
"Rp_170v" "Rp<170>"
"Rp_171v" "Rp<171>"
"Rp_172v" "Rp<172>"
"Rp_173v" "Rp<173>"
"Rp_174v" "Rp<174>"
"Rp_175v" "Rp<175>"
"Rp_176v" "Rp<176>"
"Rp_177v" "Rp<177>"
"Rp_178v" "Rp<178>"
"Rp_179v" "Rp<179>"
"Rp_180v" "Rp<180>"
"Rp_181v" "Rp<181>"
"Rp_182v" "Rp<182>"
"Rp_183v" "Rp<183>"
"Rp_184v" "Rp<184>"
"Rp_185v" "Rp<185>"
"Rp_186v" "Rp<186>"
"Rp_187v" "Rp<187>"
"Rp_188v" "Rp<188>"
"Rp_189v" "Rp<189>"
"Rp_190v" "Rp<190>"
"Rp_191v" "Rp<191>"
"Rp_192v" "Rp<192>"
"Rp_193v" "Rp<193>"
"Rp_194v" "Rp<194>"
"Rp_195v" "Rp<195>"
"Rp_196v" "Rp<196>"
"Rp_197v" "Rp<197>"
"Rp_198v" "Rp<198>"
"Rp_199v" "Rp<199>"
"Rp_200v" "Rp<200>"
"Rp_201v" "Rp<201>"
"Rp_202v" "Rp<202>"
"Rp_203v" "Rp<203>"
"Rp_204v" "Rp<204>"
"Rp_205v" "Rp<205>"
"Rp_206v" "Rp<206>"
"Rp_207v" "Rp<207>"
"Rp_208v" "Rp<208>"
"Rp_209v" "Rp<209>"
"Rp_210v" "Rp<210>"
"Rp_211v" "Rp<211>"
"Rp_212v" "Rp<212>"
"Rp_213v" "Rp<213>"
"Rp_214v" "Rp<214>"
"Rp_215v" "Rp<215>"
"Rp_216v" "Rp<216>"
"Rp_217v" "Rp<217>"
"Rp_218v" "Rp<218>"
"Rp_219v" "Rp<219>"
"Rp_220v" "Rp<220>"
"Rp_221v" "Rp<221>"
"Rp_222v" "Rp<222>"
"Rp_223v" "Rp<223>"
"Rp_224v" "Rp<224>"
"Rp_225v" "Rp<225>"
"Rp_226v" "Rp<226>"
"Rp_227v" "Rp<227>"
"Rp_228v" "Rp<228>"
"Rp_229v" "Rp<229>"
"Rp_230v" "Rp<230>"
"Rp_231v" "Rp<231>"
"Rp_232v" "Rp<232>"
"Rp_233v" "Rp<233>"
"Rp_234v" "Rp<234>"
"Rp_235v" "Rp<235>"
"Rp_236v" "Rp<236>"
"Rp_237v" "Rp<237>"
"Rp_238v" "Rp<238>"
"Rp_239v" "Rp<239>"
"Rp_240v" "Rp<240>"
"Rp_241v" "Rp<241>"
"Rp_242v" "Rp<242>"
"Rp_243v" "Rp<243>"
"Rp_244v" "Rp<244>"
"Rp_245v" "Rp<245>"
"Rp_246v" "Rp<246>"
"Rp_247v" "Rp<247>"
"Rp_248v" "Rp<248>"
"Rp_249v" "Rp<249>"
"Rp_250v" "Rp<250>"
"Rp_251v" "Rp<251>"
"Rp_252v" "Rp<252>"
"Rp_253v" "Rp<253>"
"Rp_254v" "Rp<254>"
"Rp_255v" "Rp<255>"
"Rp_256v" "Rp<256>"
"Rp_257v" "Rp<257>"
"Rp_258v" "Rp<258>"
"Rp_259v" "Rp<259>"
"Rp_260v" "Rp<260>"
"Rp_261v" "Rp<261>"
"Rp_262v" "Rp<262>"
"Rp_263v" "Rp<263>"
"Rp_264v" "Rp<264>"
"Rp_265v" "Rp<265>"
"Rp_266v" "Rp<266>"
"Rp_267v" "Rp<267>"
"Rp_268v" "Rp<268>"
"Rp_269v" "Rp<269>"
"Rp_270v" "Rp<270>"
"Rp_271v" "Rp<271>"
"Rp_272v" "Rp<272>"
"Rp_273v" "Rp<273>"
"Rp_274v" "Rp<274>"
"Rp_275v" "Rp<275>"
"Rp_276v" "Rp<276>"
"Rp_277v" "Rp<277>"
"Rp_278v" "Rp<278>"
"Rp_279v" "Rp<279>"
"Rp_280v" "Rp<280>"
"Rp_281v" "Rp<281>"
"Rp_282v" "Rp<282>"
"Rp_283v" "Rp<283>"
"Rp_284v" "Rp<284>"
"Rp_285v" "Rp<285>"
"Rp_286v" "Rp<286>"
"Rp_287v" "Rp<287>"
"Rp_288v" "Rp<288>"
"Rp_289v" "Rp<289>"
"Rp_290v" "Rp<290>"
"Rp_291v" "Rp<291>"
"Rp_292v" "Rp<292>"
"Rp_293v" "Rp<293>"
"Rp_294v" "Rp<294>"
"Rp_295v" "Rp<295>"
"Rp_296v" "Rp<296>"
"Rp_297v" "Rp<297>"
"Rp_298v" "Rp<298>"
"Rp_299v" "Rp<299>"
"Rp_300v" "Rp<300>"
"Rp_301v" "Rp<301>"
"Rp_302v" "Rp<302>"
"Rp_303v" "Rp<303>"
"Rp_304v" "Rp<304>"
"Rp_305v" "Rp<305>"
"Rp_306v" "Rp<306>"
"Rp_307v" "Rp<307>"
"Rp_308v" "Rp<308>"
"Rp_309v" "Rp<309>"
"Rp_310v" "Rp<310>"
"Rp_311v" "Rp<311>"
"Rp_312v" "Rp<312>"
"Rp_313v" "Rp<313>"
"Rp_314v" "Rp<314>"
"Rp_315v" "Rp<315>"
"Rp_316v" "Rp<316>"
"Rp_317v" "Rp<317>"
"Rp_318v" "Rp<318>"
"Rp_319v" "Rp<319>"
"Rp_320v" "Rp<320>"
"Rp_321v" "Rp<321>"
"Rp_322v" "Rp<322>"
"Rp_323v" "Rp<323>"
"Rp_324v" "Rp<324>"
"Rp_325v" "Rp<325>"
"Rp_326v" "Rp<326>"
"Rp_327v" "Rp<327>"
"Rp_328v" "Rp<328>"
"Rp_329v" "Rp<329>"
"Rp_330v" "Rp<330>"
"Rp_331v" "Rp<331>"
"Rp_332v" "Rp<332>"
"Rp_333v" "Rp<333>"
"Rp_334v" "Rp<334>"
"Rp_335v" "Rp<335>"
"Rp_336v" "Rp<336>"
"Rp_337v" "Rp<337>"
"Rp_338v" "Rp<338>"
"Rp_339v" "Rp<339>"
"Rp_340v" "Rp<340>"
"Rp_341v" "Rp<341>"
"Rp_342v" "Rp<342>"
"Rp_343v" "Rp<343>"
"Rp_344v" "Rp<344>"
"Rp_345v" "Rp<345>"
"Rp_346v" "Rp<346>"
"Rp_347v" "Rp<347>"
"Rp_348v" "Rp<348>"
"Rp_349v" "Rp<349>"
"Rp_350v" "Rp<350>"
"Rp_351v" "Rp<351>"
"Rp_352v" "Rp<352>"
"Rp_353v" "Rp<353>"
"Rp_354v" "Rp<354>"
"Rp_355v" "Rp<355>"
"Rp_356v" "Rp<356>"
"Rp_357v" "Rp<357>"
"Rp_358v" "Rp<358>"
"Rp_359v" "Rp<359>"
"Rp_360v" "Rp<360>"
"Rp_361v" "Rp<361>"
"Rp_362v" "Rp<362>"
"Rp_363v" "Rp<363>"
"Rp_364v" "Rp<364>"
"Rp_365v" "Rp<365>"
"Rp_366v" "Rp<366>"
"Rp_367v" "Rp<367>"
"Rp_368v" "Rp<368>"
"Rp_369v" "Rp<369>"
"Rp_370v" "Rp<370>"
"Rp_371v" "Rp<371>"
"Rp_372v" "Rp<372>"
"Rp_373v" "Rp<373>"
"Rp_374v" "Rp<374>"
"Rp_375v" "Rp<375>"
"Rp_376v" "Rp<376>"
"Rp_377v" "Rp<377>"
"Rp_378v" "Rp<378>"
"Rp_379v" "Rp<379>"
"Rp_380v" "Rp<380>"
"Rp_381v" "Rp<381>"
"Rp_382v" "Rp<382>"
"Rp_383v" "Rp<383>"
"Rp_384v" "Rp<384>"
"Rp_385v" "Rp<385>"
"Rp_386v" "Rp<386>"
"Rp_387v" "Rp<387>"
"Rp_388v" "Rp<388>"
"Rp_389v" "Rp<389>"
"Rp_390v" "Rp<390>"
"Rp_391v" "Rp<391>"
"Rp_392v" "Rp<392>"
"Rp_393v" "Rp<393>"
"Rp_394v" "Rp<394>"
"Rp_395v" "Rp<395>"
"Rp_396v" "Rp<396>"
"Rp_397v" "Rp<397>"
"Rp_398v" "Rp<398>"
"Rp_399v" "Rp<399>"
"Rp_400v" "Rp<400>"
"Rp_401v" "Rp<401>"
"Rp_402v" "Rp<402>"
"Rp_403v" "Rp<403>"
"Rp_404v" "Rp<404>"
"Rp_405v" "Rp<405>"
"Rp_406v" "Rp<406>"
"Rp_407v" "Rp<407>"
"Rp_408v" "Rp<408>"
"Rp_409v" "Rp<409>"
"Rp_410v" "Rp<410>"
"Rp_411v" "Rp<411>"
"Rp_412v" "Rp<412>"
"Rp_413v" "Rp<413>"
"Rp_414v" "Rp<414>"
"Rp_415v" "Rp<415>"
"Rp_416v" "Rp<416>"
"Rp_417v" "Rp<417>"
"Rp_418v" "Rp<418>"
"Rp_419v" "Rp<419>"
"Rp_420v" "Rp<420>"
"Rp_421v" "Rp<421>"
"Rp_422v" "Rp<422>"
"Rp_423v" "Rp<423>"
"Rp_424v" "Rp<424>"
"Rp_425v" "Rp<425>"
"Rp_426v" "Rp<426>"
"Rp_427v" "Rp<427>"
"Rp_428v" "Rp<428>"
"Rp_429v" "Rp<429>"
"Rp_430v" "Rp<430>"
"Rp_431v" "Rp<431>"
"Rp_432v" "Rp<432>"
"Rp_433v" "Rp<433>"
"Rp_434v" "Rp<434>"
"Rp_435v" "Rp<435>"
"Rp_436v" "Rp<436>"
"Rp_437v" "Rp<437>"
"Rp_438v" "Rp<438>"
"Rp_439v" "Rp<439>"
"Rp_440v" "Rp<440>"
"Rp_441v" "Rp<441>"
"Rp_442v" "Rp<442>"
"Rp_443v" "Rp<443>"
"Rp_444v" "Rp<444>"
"Rp_445v" "Rp<445>"
"Rp_446v" "Rp<446>"
"Rp_447v" "Rp<447>"
"Rp_448v" "Rp<448>"
"Rp_449v" "Rp<449>"
"Rp_450v" "Rp<450>"
"Rp_451v" "Rp<451>"
"Rp_452v" "Rp<452>"
"Rp_453v" "Rp<453>"
"Rp_454v" "Rp<454>"
"Rp_455v" "Rp<455>"
"Rp_456v" "Rp<456>"
"Rp_457v" "Rp<457>"
"Rp_458v" "Rp<458>"
"Rp_459v" "Rp<459>"
"Rp_460v" "Rp<460>"
"Rp_461v" "Rp<461>"
"Rp_462v" "Rp<462>"
"Rp_463v" "Rp<463>"
"Rp_464v" "Rp<464>"
"Rp_465v" "Rp<465>"
"Rp_466v" "Rp<466>"
"Rp_467v" "Rp<467>"
"Rp_468v" "Rp<468>"
"Rp_469v" "Rp<469>"
"Rp_470v" "Rp<470>"
"Rp_471v" "Rp<471>"
"Rp_472v" "Rp<472>"
"Rp_473v" "Rp<473>"
"Rp_474v" "Rp<474>"
"Rp_475v" "Rp<475>"
"Rp_476v" "Rp<476>"
"Rp_477v" "Rp<477>"
"Rp_478v" "Rp<478>"
"Rp_479v" "Rp<479>"
"Rp_480v" "Rp<480>"
"Rp_481v" "Rp<481>"
"Rp_482v" "Rp<482>"
"Rp_483v" "Rp<483>"
"Rp_484v" "Rp<484>"
"Rp_485v" "Rp<485>"
"Rp_486v" "Rp<486>"
"Rp_487v" "Rp<487>"
"Rp_488v" "Rp<488>"
"Rp_489v" "Rp<489>"
"Rp_490v" "Rp<490>"
"Rp_491v" "Rp<491>"
"Rp_492v" "Rp<492>"
"Rp_493v" "Rp<493>"
"Rp_494v" "Rp<494>"
"Rp_495v" "Rp<495>"
"Rp_496v" "Rp<496>"
"Rp_497v" "Rp<497>"
"Rp_498v" "Rp<498>"
"Rp_499v" "Rp<499>"
"Rp_500v" "Rp<500>"
"Rp_501v" "Rp<501>"
"Rp_502v" "Rp<502>"
"Rp_503v" "Rp<503>"
"Rp_504v" "Rp<504>"
"Rp_505v" "Rp<505>"
"Rp_506v" "Rp<506>"
"Rp_507v" "Rp<507>"
"Rp_508v" "Rp<508>"
"Rp_509v" "Rp<509>"
"Rp_510v" "Rp<510>"
"Rp_511v" "Rp<511>"
"Rp_512v" "Rp<512>"
"Rp_513v" "Rp<513>"
"Rp_514v" "Rp<514>"
"Rp_515v" "Rp<515>"
"Rp_516v" "Rp<516>"
"Rp_517v" "Rp<517>"
"Rp_518v" "Rp<518>"
"Rp_519v" "Rp<519>"
"Rp_520v" "Rp<520>"
"Rp_521v" "Rp<521>"
"Rp_522v" "Rp<522>"
"Rp_523v" "Rp<523>"
"Rp_524v" "Rp<524>"
"Rp_525v" "Rp<525>"
"Rp_526v" "Rp<526>"
"Rp_527v" "Rp<527>"
"Rp_528v" "Rp<528>"
"Rp_529v" "Rp<529>"
"Rp_530v" "Rp<530>"
"Rp_531v" "Rp<531>"
"Rp_532v" "Rp<532>"
"Rp_533v" "Rp<533>"
"Rp_534v" "Rp<534>"
"Rp_535v" "Rp<535>"
"Rp_536v" "Rp<536>"
"Rp_537v" "Rp<537>"
"Rp_538v" "Rp<538>"
"Rp_539v" "Rp<539>"
"Rp_540v" "Rp<540>"
"Rp_541v" "Rp<541>"
"Rp_542v" "Rp<542>"
"Rp_543v" "Rp<543>"
"Rp_544v" "Rp<544>"
"Rp_545v" "Rp<545>"
"Rp_546v" "Rp<546>"
"Rp_547v" "Rp<547>"
"Rp_548v" "Rp<548>"
"Rp_549v" "Rp<549>"
"Rp_550v" "Rp<550>"
"Rp_551v" "Rp<551>"
"Rp_552v" "Rp<552>"
"Rp_553v" "Rp<553>"
"Rp_554v" "Rp<554>"
"Rp_555v" "Rp<555>"
"Rp_556v" "Rp<556>"
"Rp_557v" "Rp<557>"
"Rp_558v" "Rp<558>"
"Rp_559v" "Rp<559>"
"Rp_560v" "Rp<560>"
"Rp_561v" "Rp<561>"
"Rp_562v" "Rp<562>"
"Rp_563v" "Rp<563>"
"Rp_564v" "Rp<564>"
"Rp_565v" "Rp<565>"
"Rp_566v" "Rp<566>"
"Rp_567v" "Rp<567>"
"Rp_568v" "Rp<568>"
"Rp_569v" "Rp<569>"
"Rp_570v" "Rp<570>"
"Rp_571v" "Rp<571>"
"Rp_572v" "Rp<572>"
"Rp_573v" "Rp<573>"
"Rp_574v" "Rp<574>"
"Rp_575v" "Rp<575>"
"Rp_576v" "Rp<576>"
"Rp_577v" "Rp<577>"
"Rp_578v" "Rp<578>"
"Rp_579v" "Rp<579>"
"Rp_580v" "Rp<580>"
"Rp_581v" "Rp<581>"
"Rp_582v" "Rp<582>"
"Rp_583v" "Rp<583>"
"Rp_584v" "Rp<584>"
"Rp_585v" "Rp<585>"
"Rp_586v" "Rp<586>"
"Rp_587v" "Rp<587>"
"Rp_588v" "Rp<588>"
"Rp_589v" "Rp<589>"
"Rp_590v" "Rp<590>"
"Rp_591v" "Rp<591>"
"Rp_592v" "Rp<592>"
"Rp_593v" "Rp<593>"
"Rp_594v" "Rp<594>"
"Rp_595v" "Rp<595>"
"Rp_596v" "Rp<596>"
"Rp_597v" "Rp<597>"
"Rp_598v" "Rp<598>"
"Rp_599v" "Rp<599>"
"Rp_600v" "Rp<600>"
"Rp_601v" "Rp<601>"
"Rp_602v" "Rp<602>"
"Rp_603v" "Rp<603>"
"Rp_604v" "Rp<604>"
"Rp_605v" "Rp<605>"
"Rp_606v" "Rp<606>"
"Rp_607v" "Rp<607>"
"Rp_608v" "Rp<608>"
"Rp_609v" "Rp<609>"
"Rp_610v" "Rp<610>"
"Rp_611v" "Rp<611>"
"Rp_612v" "Rp<612>"
"Rp_613v" "Rp<613>"
"Rp_614v" "Rp<614>"
"Rp_615v" "Rp<615>"
"Rp_616v" "Rp<616>"
"Rp_617v" "Rp<617>"
"Rp_618v" "Rp<618>"
"Rp_619v" "Rp<619>"
"Rp_620v" "Rp<620>"
"Rp_621v" "Rp<621>"
"Rp_622v" "Rp<622>"
"Rp_623v" "Rp<623>"
"Rp_624v" "Rp<624>"
"Rp_625v" "Rp<625>"
"Rp_626v" "Rp<626>"
"Rp_627v" "Rp<627>"
"Rp_628v" "Rp<628>"
"Rp_629v" "Rp<629>"
"Rp_630v" "Rp<630>"
"Rp_631v" "Rp<631>"
"Rp_632v" "Rp<632>"
"Rp_633v" "Rp<633>"
"Rp_634v" "Rp<634>"
"Rp_635v" "Rp<635>"
"Rp_636v" "Rp<636>"
"Rp_637v" "Rp<637>"
"Rp_638v" "Rp<638>"
"Rp_639v" "Rp<639>"
"Rp_640v" "Rp<640>"
"Rp_641v" "Rp<641>"
"Rp_642v" "Rp<642>"
"Rp_643v" "Rp<643>"
"Rp_644v" "Rp<644>"
"Rp_645v" "Rp<645>"
"Rp_646v" "Rp<646>"
"Rp_647v" "Rp<647>"
"Rp_648v" "Rp<648>"
"Rp_649v" "Rp<649>"
"Rp_650v" "Rp<650>"
"Rp_651v" "Rp<651>"
"Rp_652v" "Rp<652>"
"Rp_653v" "Rp<653>"
"Rp_654v" "Rp<654>"
"Rp_655v" "Rp<655>"
"Rp_656v" "Rp<656>"
"Rp_657v" "Rp<657>"
"Rp_658v" "Rp<658>"
"Rp_659v" "Rp<659>"
"Rp_660v" "Rp<660>"
"Rp_661v" "Rp<661>"
"Rp_662v" "Rp<662>"
"Rp_663v" "Rp<663>"
"Rp_664v" "Rp<664>"
"Rp_665v" "Rp<665>"
"Rp_666v" "Rp<666>"
"Rp_667v" "Rp<667>"
"Rp_668v" "Rp<668>"
"Rp_669v" "Rp<669>"
"Rp_670v" "Rp<670>"
"Rp_671v" "Rp<671>"
"Rp_672v" "Rp<672>"
"Rp_673v" "Rp<673>"
"Rp_674v" "Rp<674>"
"Rp_675v" "Rp<675>"
"Rp_676v" "Rp<676>"
"Rp_677v" "Rp<677>"
"Rp_678v" "Rp<678>"
"Rp_679v" "Rp<679>"
"Rp_680v" "Rp<680>"
"Rp_681v" "Rp<681>"
"Rp_682v" "Rp<682>"
"Rp_683v" "Rp<683>"
"Rp_684v" "Rp<684>"
"Rp_685v" "Rp<685>"
"Rp_686v" "Rp<686>"
"Rp_687v" "Rp<687>"
"Rp_688v" "Rp<688>"
"Rp_689v" "Rp<689>"
"Rp_690v" "Rp<690>"
"Rp_691v" "Rp<691>"
"Rp_692v" "Rp<692>"
"Rp_693v" "Rp<693>"
"Rp_694v" "Rp<694>"
"Rp_695v" "Rp<695>"
"Rp_696v" "Rp<696>"
"Rp_697v" "Rp<697>"
"Rp_698v" "Rp<698>"
"Rp_699v" "Rp<699>"
"Rp_700v" "Rp<700>"
"Rp_701v" "Rp<701>"
"Rp_702v" "Rp<702>"
"Rp_703v" "Rp<703>"
"Rp_704v" "Rp<704>"
"Rp_705v" "Rp<705>"
"Rp_706v" "Rp<706>"
"Rp_707v" "Rp<707>"
"Rp_708v" "Rp<708>"
"Rp_709v" "Rp<709>"
"Rp_710v" "Rp<710>"
"Rp_711v" "Rp<711>"
"Rp_712v" "Rp<712>"
"Rp_713v" "Rp<713>"
"Rp_714v" "Rp<714>"
"Rp_715v" "Rp<715>"
"Rp_716v" "Rp<716>"
"Rp_717v" "Rp<717>"
"Rp_718v" "Rp<718>"
"Rp_719v" "Rp<719>"
"Rp_720v" "Rp<720>"
"Rp_721v" "Rp<721>"
"Rp_722v" "Rp<722>"
"Rp_723v" "Rp<723>"
"Rp_724v" "Rp<724>"
"Rp_725v" "Rp<725>"
"Rp_726v" "Rp<726>"
"Rp_727v" "Rp<727>"
"Rp_728v" "Rp<728>"
"Rp_729v" "Rp<729>"
"Rp_730v" "Rp<730>"
"Rp_731v" "Rp<731>"
"Rp_732v" "Rp<732>"
"Rp_733v" "Rp<733>"
"Rp_734v" "Rp<734>"
"Rp_735v" "Rp<735>"
"Rp_736v" "Rp<736>"
"Rp_737v" "Rp<737>"
"Rp_738v" "Rp<738>"
"Rp_739v" "Rp<739>"
"Rp_740v" "Rp<740>"
"Rp_741v" "Rp<741>"
"Rp_742v" "Rp<742>"
"Rp_743v" "Rp<743>"
"Rp_744v" "Rp<744>"
"Rp_745v" "Rp<745>"
"Rp_746v" "Rp<746>"
"Rp_747v" "Rp<747>"
"Rp_748v" "Rp<748>"
"Rp_749v" "Rp<749>"
"Rp_750v" "Rp<750>"
"Rp_751v" "Rp<751>"
"Rp_752v" "Rp<752>"
"Rp_753v" "Rp<753>"
"Rp_754v" "Rp<754>"
"Rp_755v" "Rp<755>"
"Rp_756v" "Rp<756>"
"Rp_757v" "Rp<757>"
"Rp_758v" "Rp<758>"
"Rp_759v" "Rp<759>"
"Rp_760v" "Rp<760>"
"Rp_761v" "Rp<761>"
"Rp_762v" "Rp<762>"
"Rp_763v" "Rp<763>"
"Rp_764v" "Rp<764>"
"Rp_765v" "Rp<765>"
"Rp_766v" "Rp<766>"
"Rp_767v" "Rp<767>"
"Rp_768v" "Rp<768>"
"Rp_769v" "Rp<769>"
"Rp_770v" "Rp<770>"
"Rp_771v" "Rp<771>"
"Rp_772v" "Rp<772>"
"Rp_773v" "Rp<773>"
"Rp_774v" "Rp<774>"
"Rp_775v" "Rp<775>"
"Rp_776v" "Rp<776>"
"Rp_777v" "Rp<777>"
"Rp_778v" "Rp<778>"
"Rp_779v" "Rp<779>"
"Rp_780v" "Rp<780>"
"Rp_781v" "Rp<781>"
"Rp_782v" "Rp<782>"
"Rp_783v" "Rp<783>"
"Rp_784v" "Rp<784>"
"vo_1v" "vo<1>"
"vo_2v" "vo<2>"
"vo_3v" "vo<3>"
"vo_4v" "vo<4>"
"vo_5v" "vo<5>"
"vo_6v" "vo<6>"
"vo_7v" "vo<7>"
"vo_8v" "vo<8>"
"vo_9v" "vo<9>"
"vo_10v" "vo<10>"
"vo_11v" "vo<11>"
"vo_12v" "vo<12>"
"vo_13v" "vo<13>"
"vo_14v" "vo<14>"
"vo_15v" "vo<15>"
"vo_16v" "vo<16>"
"Rn_1v" "Rn<1>"
"Rn_2v" "Rn<2>"
"Rn_3v" "Rn<3>"
"Rn_4v" "Rn<4>"
"Rn_5v" "Rn<5>"
"Rn_6v" "Rn<6>"
"Rn_7v" "Rn<7>"
"Rn_8v" "Rn<8>"
"Rn_9v" "Rn<9>"
"Rn_10v" "Rn<10>"
"Rn_11v" "Rn<11>"
"Rn_12v" "Rn<12>"
"Rn_13v" "Rn<13>"
"Rn_14v" "Rn<14>"
"Rn_15v" "Rn<15>"
"Rn_16v" "Rn<16>"
"Rn_17v" "Rn<17>"
"Rn_18v" "Rn<18>"
"Rn_19v" "Rn<19>"
"Rn_20v" "Rn<20>"
"Rn_21v" "Rn<21>"
"Rn_22v" "Rn<22>"
"Rn_23v" "Rn<23>"
"Rn_24v" "Rn<24>"
"Rn_25v" "Rn<25>"
"Rn_26v" "Rn<26>"
"Rn_27v" "Rn<27>"
"Rn_28v" "Rn<28>"
"Rn_29v" "Rn<29>"
"Rn_30v" "Rn<30>"
"Rn_31v" "Rn<31>"
"Rn_32v" "Rn<32>"
"Rn_33v" "Rn<33>"
"Rn_34v" "Rn<34>"
"Rn_35v" "Rn<35>"
"Rn_36v" "Rn<36>"
"Rn_37v" "Rn<37>"
"Rn_38v" "Rn<38>"
"Rn_39v" "Rn<39>"
"Rn_40v" "Rn<40>"
"Rn_41v" "Rn<41>"
"Rn_42v" "Rn<42>"
"Rn_43v" "Rn<43>"
"Rn_44v" "Rn<44>"
"Rn_45v" "Rn<45>"
"Rn_46v" "Rn<46>"
"Rn_47v" "Rn<47>"
"Rn_48v" "Rn<48>"
"Rn_49v" "Rn<49>"
"Rn_50v" "Rn<50>"
"Rn_51v" "Rn<51>"
"Rn_52v" "Rn<52>"
"Rn_53v" "Rn<53>"
"Rn_54v" "Rn<54>"
"Rn_55v" "Rn<55>"
"Rn_56v" "Rn<56>"
"Rn_57v" "Rn<57>"
"Rn_58v" "Rn<58>"
"Rn_59v" "Rn<59>"
"Rn_60v" "Rn<60>"
"Rn_61v" "Rn<61>"
"Rn_62v" "Rn<62>"
"Rn_63v" "Rn<63>"
"Rn_64v" "Rn<64>"
"Rn_65v" "Rn<65>"
"Rn_66v" "Rn<66>"
"Rn_67v" "Rn<67>"
"Rn_68v" "Rn<68>"
"Rn_69v" "Rn<69>"
"Rn_70v" "Rn<70>"
"Rn_71v" "Rn<71>"
"Rn_72v" "Rn<72>"
"Rn_73v" "Rn<73>"
"Rn_74v" "Rn<74>"
"Rn_75v" "Rn<75>"
"Rn_76v" "Rn<76>"
"Rn_77v" "Rn<77>"
"Rn_78v" "Rn<78>"
"Rn_79v" "Rn<79>"
"Rn_80v" "Rn<80>"
"Rn_81v" "Rn<81>"
"Rn_82v" "Rn<82>"
"Rn_83v" "Rn<83>"
"Rn_84v" "Rn<84>"
"Rn_85v" "Rn<85>"
"Rn_86v" "Rn<86>"
"Rn_87v" "Rn<87>"
"Rn_88v" "Rn<88>"
"Rn_89v" "Rn<89>"
"Rn_90v" "Rn<90>"
"Rn_91v" "Rn<91>"
"Rn_92v" "Rn<92>"
"Rn_93v" "Rn<93>"
"Rn_94v" "Rn<94>"
"Rn_95v" "Rn<95>"
"Rn_96v" "Rn<96>"
"Rn_97v" "Rn<97>"
"Rn_98v" "Rn<98>"
"Rn_99v" "Rn<99>"
"Rn_100v" "Rn<100>"
"Rn_101v" "Rn<101>"
"Rn_102v" "Rn<102>"
"Rn_103v" "Rn<103>"
"Rn_104v" "Rn<104>"
"Rn_105v" "Rn<105>"
"Rn_106v" "Rn<106>"
"Rn_107v" "Rn<107>"
"Rn_108v" "Rn<108>"
"Rn_109v" "Rn<109>"
"Rn_110v" "Rn<110>"
"Rn_111v" "Rn<111>"
"Rn_112v" "Rn<112>"
"Rn_113v" "Rn<113>"
"Rn_114v" "Rn<114>"
"Rn_115v" "Rn<115>"
"Rn_116v" "Rn<116>"
"Rn_117v" "Rn<117>"
"Rn_118v" "Rn<118>"
"Rn_119v" "Rn<119>"
"Rn_120v" "Rn<120>"
"Rn_121v" "Rn<121>"
"Rn_122v" "Rn<122>"
"Rn_123v" "Rn<123>"
"Rn_124v" "Rn<124>"
"Rn_125v" "Rn<125>"
"Rn_126v" "Rn<126>"
"Rn_127v" "Rn<127>"
"Rn_128v" "Rn<128>"
"Rn_129v" "Rn<129>"
"Rn_130v" "Rn<130>"
"Rn_131v" "Rn<131>"
"Rn_132v" "Rn<132>"
"Rn_133v" "Rn<133>"
"Rn_134v" "Rn<134>"
"Rn_135v" "Rn<135>"
"Rn_136v" "Rn<136>"
"Rn_137v" "Rn<137>"
"Rn_138v" "Rn<138>"
"Rn_139v" "Rn<139>"
"Rn_140v" "Rn<140>"
"Rn_141v" "Rn<141>"
"Rn_142v" "Rn<142>"
"Rn_143v" "Rn<143>"
"Rn_144v" "Rn<144>"
"Rn_145v" "Rn<145>"
"Rn_146v" "Rn<146>"
"Rn_147v" "Rn<147>"
"Rn_148v" "Rn<148>"
"Rn_149v" "Rn<149>"
"Rn_150v" "Rn<150>"
"Rn_151v" "Rn<151>"
"Rn_152v" "Rn<152>"
"Rn_153v" "Rn<153>"
"Rn_154v" "Rn<154>"
"Rn_155v" "Rn<155>"
"Rn_156v" "Rn<156>"
"Rn_157v" "Rn<157>"
"Rn_158v" "Rn<158>"
"Rn_159v" "Rn<159>"
"Rn_160v" "Rn<160>"
"Rn_161v" "Rn<161>"
"Rn_162v" "Rn<162>"
"Rn_163v" "Rn<163>"
"Rn_164v" "Rn<164>"
"Rn_165v" "Rn<165>"
"Rn_166v" "Rn<166>"
"Rn_167v" "Rn<167>"
"Rn_168v" "Rn<168>"
"Rn_169v" "Rn<169>"
"Rn_170v" "Rn<170>"
"Rn_171v" "Rn<171>"
"Rn_172v" "Rn<172>"
"Rn_173v" "Rn<173>"
"Rn_174v" "Rn<174>"
"Rn_175v" "Rn<175>"
"Rn_176v" "Rn<176>"
"Rn_177v" "Rn<177>"
"Rn_178v" "Rn<178>"
"Rn_179v" "Rn<179>"
"Rn_180v" "Rn<180>"
"Rn_181v" "Rn<181>"
"Rn_182v" "Rn<182>"
"Rn_183v" "Rn<183>"
"Rn_184v" "Rn<184>"
"Rn_185v" "Rn<185>"
"Rn_186v" "Rn<186>"
"Rn_187v" "Rn<187>"
"Rn_188v" "Rn<188>"
"Rn_189v" "Rn<189>"
"Rn_190v" "Rn<190>"
"Rn_191v" "Rn<191>"
"Rn_192v" "Rn<192>"
"Rn_193v" "Rn<193>"
"Rn_194v" "Rn<194>"
"Rn_195v" "Rn<195>"
"Rn_196v" "Rn<196>"
"Rn_197v" "Rn<197>"
"Rn_198v" "Rn<198>"
"Rn_199v" "Rn<199>"
"Rn_200v" "Rn<200>"
"Rn_201v" "Rn<201>"
"Rn_202v" "Rn<202>"
"Rn_203v" "Rn<203>"
"Rn_204v" "Rn<204>"
"Rn_205v" "Rn<205>"
"Rn_206v" "Rn<206>"
"Rn_207v" "Rn<207>"
"Rn_208v" "Rn<208>"
"Rn_209v" "Rn<209>"
"Rn_210v" "Rn<210>"
"Rn_211v" "Rn<211>"
"Rn_212v" "Rn<212>"
"Rn_213v" "Rn<213>"
"Rn_214v" "Rn<214>"
"Rn_215v" "Rn<215>"
"Rn_216v" "Rn<216>"
"Rn_217v" "Rn<217>"
"Rn_218v" "Rn<218>"
"Rn_219v" "Rn<219>"
"Rn_220v" "Rn<220>"
"Rn_221v" "Rn<221>"
"Rn_222v" "Rn<222>"
"Rn_223v" "Rn<223>"
"Rn_224v" "Rn<224>"
"Rn_225v" "Rn<225>"
"Rn_226v" "Rn<226>"
"Rn_227v" "Rn<227>"
"Rn_228v" "Rn<228>"
"Rn_229v" "Rn<229>"
"Rn_230v" "Rn<230>"
"Rn_231v" "Rn<231>"
"Rn_232v" "Rn<232>"
"Rn_233v" "Rn<233>"
"Rn_234v" "Rn<234>"
"Rn_235v" "Rn<235>"
"Rn_236v" "Rn<236>"
"Rn_237v" "Rn<237>"
"Rn_238v" "Rn<238>"
"Rn_239v" "Rn<239>"
"Rn_240v" "Rn<240>"
"Rn_241v" "Rn<241>"
"Rn_242v" "Rn<242>"
"Rn_243v" "Rn<243>"
"Rn_244v" "Rn<244>"
"Rn_245v" "Rn<245>"
"Rn_246v" "Rn<246>"
"Rn_247v" "Rn<247>"
"Rn_248v" "Rn<248>"
"Rn_249v" "Rn<249>"
"Rn_250v" "Rn<250>"
"Rn_251v" "Rn<251>"
"Rn_252v" "Rn<252>"
"Rn_253v" "Rn<253>"
"Rn_254v" "Rn<254>"
"Rn_255v" "Rn<255>"
"Rn_256v" "Rn<256>"
"Rn_257v" "Rn<257>"
"Rn_258v" "Rn<258>"
"Rn_259v" "Rn<259>"
"Rn_260v" "Rn<260>"
"Rn_261v" "Rn<261>"
"Rn_262v" "Rn<262>"
"Rn_263v" "Rn<263>"
"Rn_264v" "Rn<264>"
"Rn_265v" "Rn<265>"
"Rn_266v" "Rn<266>"
"Rn_267v" "Rn<267>"
"Rn_268v" "Rn<268>"
"Rn_269v" "Rn<269>"
"Rn_270v" "Rn<270>"
"Rn_271v" "Rn<271>"
"Rn_272v" "Rn<272>"
"Rn_273v" "Rn<273>"
"Rn_274v" "Rn<274>"
"Rn_275v" "Rn<275>"
"Rn_276v" "Rn<276>"
"Rn_277v" "Rn<277>"
"Rn_278v" "Rn<278>"
"Rn_279v" "Rn<279>"
"Rn_280v" "Rn<280>"
"Rn_281v" "Rn<281>"
"Rn_282v" "Rn<282>"
"Rn_283v" "Rn<283>"
"Rn_284v" "Rn<284>"
"Rn_285v" "Rn<285>"
"Rn_286v" "Rn<286>"
"Rn_287v" "Rn<287>"
"Rn_288v" "Rn<288>"
"Rn_289v" "Rn<289>"
"Rn_290v" "Rn<290>"
"Rn_291v" "Rn<291>"
"Rn_292v" "Rn<292>"
"Rn_293v" "Rn<293>"
"Rn_294v" "Rn<294>"
"Rn_295v" "Rn<295>"
"Rn_296v" "Rn<296>"
"Rn_297v" "Rn<297>"
"Rn_298v" "Rn<298>"
"Rn_299v" "Rn<299>"
"Rn_300v" "Rn<300>"
"Rn_301v" "Rn<301>"
"Rn_302v" "Rn<302>"
"Rn_303v" "Rn<303>"
"Rn_304v" "Rn<304>"
"Rn_305v" "Rn<305>"
"Rn_306v" "Rn<306>"
"Rn_307v" "Rn<307>"
"Rn_308v" "Rn<308>"
"Rn_309v" "Rn<309>"
"Rn_310v" "Rn<310>"
"Rn_311v" "Rn<311>"
"Rn_312v" "Rn<312>"
"Rn_313v" "Rn<313>"
"Rn_314v" "Rn<314>"
"Rn_315v" "Rn<315>"
"Rn_316v" "Rn<316>"
"Rn_317v" "Rn<317>"
"Rn_318v" "Rn<318>"
"Rn_319v" "Rn<319>"
"Rn_320v" "Rn<320>"
"Rn_321v" "Rn<321>"
"Rn_322v" "Rn<322>"
"Rn_323v" "Rn<323>"
"Rn_324v" "Rn<324>"
"Rn_325v" "Rn<325>"
"Rn_326v" "Rn<326>"
"Rn_327v" "Rn<327>"
"Rn_328v" "Rn<328>"
"Rn_329v" "Rn<329>"
"Rn_330v" "Rn<330>"
"Rn_331v" "Rn<331>"
"Rn_332v" "Rn<332>"
"Rn_333v" "Rn<333>"
"Rn_334v" "Rn<334>"
"Rn_335v" "Rn<335>"
"Rn_336v" "Rn<336>"
"Rn_337v" "Rn<337>"
"Rn_338v" "Rn<338>"
"Rn_339v" "Rn<339>"
"Rn_340v" "Rn<340>"
"Rn_341v" "Rn<341>"
"Rn_342v" "Rn<342>"
"Rn_343v" "Rn<343>"
"Rn_344v" "Rn<344>"
"Rn_345v" "Rn<345>"
"Rn_346v" "Rn<346>"
"Rn_347v" "Rn<347>"
"Rn_348v" "Rn<348>"
"Rn_349v" "Rn<349>"
"Rn_350v" "Rn<350>"
"Rn_351v" "Rn<351>"
"Rn_352v" "Rn<352>"
"Rn_353v" "Rn<353>"
"Rn_354v" "Rn<354>"
"Rn_355v" "Rn<355>"
"Rn_356v" "Rn<356>"
"Rn_357v" "Rn<357>"
"Rn_358v" "Rn<358>"
"Rn_359v" "Rn<359>"
"Rn_360v" "Rn<360>"
"Rn_361v" "Rn<361>"
"Rn_362v" "Rn<362>"
"Rn_363v" "Rn<363>"
"Rn_364v" "Rn<364>"
"Rn_365v" "Rn<365>"
"Rn_366v" "Rn<366>"
"Rn_367v" "Rn<367>"
"Rn_368v" "Rn<368>"
"Rn_369v" "Rn<369>"
"Rn_370v" "Rn<370>"
"Rn_371v" "Rn<371>"
"Rn_372v" "Rn<372>"
"Rn_373v" "Rn<373>"
"Rn_374v" "Rn<374>"
"Rn_375v" "Rn<375>"
"Rn_376v" "Rn<376>"
"Rn_377v" "Rn<377>"
"Rn_378v" "Rn<378>"
"Rn_379v" "Rn<379>"
"Rn_380v" "Rn<380>"
"Rn_381v" "Rn<381>"
"Rn_382v" "Rn<382>"
"Rn_383v" "Rn<383>"
"Rn_384v" "Rn<384>"
"Rn_385v" "Rn<385>"
"Rn_386v" "Rn<386>"
"Rn_387v" "Rn<387>"
"Rn_388v" "Rn<388>"
"Rn_389v" "Rn<389>"
"Rn_390v" "Rn<390>"
"Rn_391v" "Rn<391>"
"Rn_392v" "Rn<392>"
"Rn_393v" "Rn<393>"
"Rn_394v" "Rn<394>"
"Rn_395v" "Rn<395>"
"Rn_396v" "Rn<396>"
"Rn_397v" "Rn<397>"
"Rn_398v" "Rn<398>"
"Rn_399v" "Rn<399>"
"Rn_400v" "Rn<400>"
"Rn_401v" "Rn<401>"
"Rn_402v" "Rn<402>"
"Rn_403v" "Rn<403>"
"Rn_404v" "Rn<404>"
"Rn_405v" "Rn<405>"
"Rn_406v" "Rn<406>"
"Rn_407v" "Rn<407>"
"Rn_408v" "Rn<408>"
"Rn_409v" "Rn<409>"
"Rn_410v" "Rn<410>"
"Rn_411v" "Rn<411>"
"Rn_412v" "Rn<412>"
"Rn_413v" "Rn<413>"
"Rn_414v" "Rn<414>"
"Rn_415v" "Rn<415>"
"Rn_416v" "Rn<416>"
"Rn_417v" "Rn<417>"
"Rn_418v" "Rn<418>"
"Rn_419v" "Rn<419>"
"Rn_420v" "Rn<420>"
"Rn_421v" "Rn<421>"
"Rn_422v" "Rn<422>"
"Rn_423v" "Rn<423>"
"Rn_424v" "Rn<424>"
"Rn_425v" "Rn<425>"
"Rn_426v" "Rn<426>"
"Rn_427v" "Rn<427>"
"Rn_428v" "Rn<428>"
"Rn_429v" "Rn<429>"
"Rn_430v" "Rn<430>"
"Rn_431v" "Rn<431>"
"Rn_432v" "Rn<432>"
"Rn_433v" "Rn<433>"
"Rn_434v" "Rn<434>"
"Rn_435v" "Rn<435>"
"Rn_436v" "Rn<436>"
"Rn_437v" "Rn<437>"
"Rn_438v" "Rn<438>"
"Rn_439v" "Rn<439>"
"Rn_440v" "Rn<440>"
"Rn_441v" "Rn<441>"
"Rn_442v" "Rn<442>"
"Rn_443v" "Rn<443>"
"Rn_444v" "Rn<444>"
"Rn_445v" "Rn<445>"
"Rn_446v" "Rn<446>"
"Rn_447v" "Rn<447>"
"Rn_448v" "Rn<448>"
"Rn_449v" "Rn<449>"
"Rn_450v" "Rn<450>"
"Rn_451v" "Rn<451>"
"Rn_452v" "Rn<452>"
"Rn_453v" "Rn<453>"
"Rn_454v" "Rn<454>"
"Rn_455v" "Rn<455>"
"Rn_456v" "Rn<456>"
"Rn_457v" "Rn<457>"
"Rn_458v" "Rn<458>"
"Rn_459v" "Rn<459>"
"Rn_460v" "Rn<460>"
"Rn_461v" "Rn<461>"
"Rn_462v" "Rn<462>"
"Rn_463v" "Rn<463>"
"Rn_464v" "Rn<464>"
"Rn_465v" "Rn<465>"
"Rn_466v" "Rn<466>"
"Rn_467v" "Rn<467>"
"Rn_468v" "Rn<468>"
"Rn_469v" "Rn<469>"
"Rn_470v" "Rn<470>"
"Rn_471v" "Rn<471>"
"Rn_472v" "Rn<472>"
"Rn_473v" "Rn<473>"
"Rn_474v" "Rn<474>"
"Rn_475v" "Rn<475>"
"Rn_476v" "Rn<476>"
"Rn_477v" "Rn<477>"
"Rn_478v" "Rn<478>"
"Rn_479v" "Rn<479>"
"Rn_480v" "Rn<480>"
"Rn_481v" "Rn<481>"
"Rn_482v" "Rn<482>"
"Rn_483v" "Rn<483>"
"Rn_484v" "Rn<484>"
"Rn_485v" "Rn<485>"
"Rn_486v" "Rn<486>"
"Rn_487v" "Rn<487>"
"Rn_488v" "Rn<488>"
"Rn_489v" "Rn<489>"
"Rn_490v" "Rn<490>"
"Rn_491v" "Rn<491>"
"Rn_492v" "Rn<492>"
"Rn_493v" "Rn<493>"
"Rn_494v" "Rn<494>"
"Rn_495v" "Rn<495>"
"Rn_496v" "Rn<496>"
"Rn_497v" "Rn<497>"
"Rn_498v" "Rn<498>"
"Rn_499v" "Rn<499>"
"Rn_500v" "Rn<500>"
"Rn_501v" "Rn<501>"
"Rn_502v" "Rn<502>"
"Rn_503v" "Rn<503>"
"Rn_504v" "Rn<504>"
"Rn_505v" "Rn<505>"
"Rn_506v" "Rn<506>"
"Rn_507v" "Rn<507>"
"Rn_508v" "Rn<508>"
"Rn_509v" "Rn<509>"
"Rn_510v" "Rn<510>"
"Rn_511v" "Rn<511>"
"Rn_512v" "Rn<512>"
"Rn_513v" "Rn<513>"
"Rn_514v" "Rn<514>"
"Rn_515v" "Rn<515>"
"Rn_516v" "Rn<516>"
"Rn_517v" "Rn<517>"
"Rn_518v" "Rn<518>"
"Rn_519v" "Rn<519>"
"Rn_520v" "Rn<520>"
"Rn_521v" "Rn<521>"
"Rn_522v" "Rn<522>"
"Rn_523v" "Rn<523>"
"Rn_524v" "Rn<524>"
"Rn_525v" "Rn<525>"
"Rn_526v" "Rn<526>"
"Rn_527v" "Rn<527>"
"Rn_528v" "Rn<528>"
"Rn_529v" "Rn<529>"
"Rn_530v" "Rn<530>"
"Rn_531v" "Rn<531>"
"Rn_532v" "Rn<532>"
"Rn_533v" "Rn<533>"
"Rn_534v" "Rn<534>"
"Rn_535v" "Rn<535>"
"Rn_536v" "Rn<536>"
"Rn_537v" "Rn<537>"
"Rn_538v" "Rn<538>"
"Rn_539v" "Rn<539>"
"Rn_540v" "Rn<540>"
"Rn_541v" "Rn<541>"
"Rn_542v" "Rn<542>"
"Rn_543v" "Rn<543>"
"Rn_544v" "Rn<544>"
"Rn_545v" "Rn<545>"
"Rn_546v" "Rn<546>"
"Rn_547v" "Rn<547>"
"Rn_548v" "Rn<548>"
"Rn_549v" "Rn<549>"
"Rn_550v" "Rn<550>"
"Rn_551v" "Rn<551>"
"Rn_552v" "Rn<552>"
"Rn_553v" "Rn<553>"
"Rn_554v" "Rn<554>"
"Rn_555v" "Rn<555>"
"Rn_556v" "Rn<556>"
"Rn_557v" "Rn<557>"
"Rn_558v" "Rn<558>"
"Rn_559v" "Rn<559>"
"Rn_560v" "Rn<560>"
"Rn_561v" "Rn<561>"
"Rn_562v" "Rn<562>"
"Rn_563v" "Rn<563>"
"Rn_564v" "Rn<564>"
"Rn_565v" "Rn<565>"
"Rn_566v" "Rn<566>"
"Rn_567v" "Rn<567>"
"Rn_568v" "Rn<568>"
"Rn_569v" "Rn<569>"
"Rn_570v" "Rn<570>"
"Rn_571v" "Rn<571>"
"Rn_572v" "Rn<572>"
"Rn_573v" "Rn<573>"
"Rn_574v" "Rn<574>"
"Rn_575v" "Rn<575>"
"Rn_576v" "Rn<576>"
"Rn_577v" "Rn<577>"
"Rn_578v" "Rn<578>"
"Rn_579v" "Rn<579>"
"Rn_580v" "Rn<580>"
"Rn_581v" "Rn<581>"
"Rn_582v" "Rn<582>"
"Rn_583v" "Rn<583>"
"Rn_584v" "Rn<584>"
"Rn_585v" "Rn<585>"
"Rn_586v" "Rn<586>"
"Rn_587v" "Rn<587>"
"Rn_588v" "Rn<588>"
"Rn_589v" "Rn<589>"
"Rn_590v" "Rn<590>"
"Rn_591v" "Rn<591>"
"Rn_592v" "Rn<592>"
"Rn_593v" "Rn<593>"
"Rn_594v" "Rn<594>"
"Rn_595v" "Rn<595>"
"Rn_596v" "Rn<596>"
"Rn_597v" "Rn<597>"
"Rn_598v" "Rn<598>"
"Rn_599v" "Rn<599>"
"Rn_600v" "Rn<600>"
"Rn_601v" "Rn<601>"
"Rn_602v" "Rn<602>"
"Rn_603v" "Rn<603>"
"Rn_604v" "Rn<604>"
"Rn_605v" "Rn<605>"
"Rn_606v" "Rn<606>"
"Rn_607v" "Rn<607>"
"Rn_608v" "Rn<608>"
"Rn_609v" "Rn<609>"
"Rn_610v" "Rn<610>"
"Rn_611v" "Rn<611>"
"Rn_612v" "Rn<612>"
"Rn_613v" "Rn<613>"
"Rn_614v" "Rn<614>"
"Rn_615v" "Rn<615>"
"Rn_616v" "Rn<616>"
"Rn_617v" "Rn<617>"
"Rn_618v" "Rn<618>"
"Rn_619v" "Rn<619>"
"Rn_620v" "Rn<620>"
"Rn_621v" "Rn<621>"
"Rn_622v" "Rn<622>"
"Rn_623v" "Rn<623>"
"Rn_624v" "Rn<624>"
"Rn_625v" "Rn<625>"
"Rn_626v" "Rn<626>"
"Rn_627v" "Rn<627>"
"Rn_628v" "Rn<628>"
"Rn_629v" "Rn<629>"
"Rn_630v" "Rn<630>"
"Rn_631v" "Rn<631>"
"Rn_632v" "Rn<632>"
"Rn_633v" "Rn<633>"
"Rn_634v" "Rn<634>"
"Rn_635v" "Rn<635>"
"Rn_636v" "Rn<636>"
"Rn_637v" "Rn<637>"
"Rn_638v" "Rn<638>"
"Rn_639v" "Rn<639>"
"Rn_640v" "Rn<640>"
"Rn_641v" "Rn<641>"
"Rn_642v" "Rn<642>"
"Rn_643v" "Rn<643>"
"Rn_644v" "Rn<644>"
"Rn_645v" "Rn<645>"
"Rn_646v" "Rn<646>"
"Rn_647v" "Rn<647>"
"Rn_648v" "Rn<648>"
"Rn_649v" "Rn<649>"
"Rn_650v" "Rn<650>"
"Rn_651v" "Rn<651>"
"Rn_652v" "Rn<652>"
"Rn_653v" "Rn<653>"
"Rn_654v" "Rn<654>"
"Rn_655v" "Rn<655>"
"Rn_656v" "Rn<656>"
"Rn_657v" "Rn<657>"
"Rn_658v" "Rn<658>"
"Rn_659v" "Rn<659>"
"Rn_660v" "Rn<660>"
"Rn_661v" "Rn<661>"
"Rn_662v" "Rn<662>"
"Rn_663v" "Rn<663>"
"Rn_664v" "Rn<664>"
"Rn_665v" "Rn<665>"
"Rn_666v" "Rn<666>"
"Rn_667v" "Rn<667>"
"Rn_668v" "Rn<668>"
"Rn_669v" "Rn<669>"
"Rn_670v" "Rn<670>"
"Rn_671v" "Rn<671>"
"Rn_672v" "Rn<672>"
"Rn_673v" "Rn<673>"
"Rn_674v" "Rn<674>"
"Rn_675v" "Rn<675>"
"Rn_676v" "Rn<676>"
"Rn_677v" "Rn<677>"
"Rn_678v" "Rn<678>"
"Rn_679v" "Rn<679>"
"Rn_680v" "Rn<680>"
"Rn_681v" "Rn<681>"
"Rn_682v" "Rn<682>"
"Rn_683v" "Rn<683>"
"Rn_684v" "Rn<684>"
"Rn_685v" "Rn<685>"
"Rn_686v" "Rn<686>"
"Rn_687v" "Rn<687>"
"Rn_688v" "Rn<688>"
"Rn_689v" "Rn<689>"
"Rn_690v" "Rn<690>"
"Rn_691v" "Rn<691>"
"Rn_692v" "Rn<692>"
"Rn_693v" "Rn<693>"
"Rn_694v" "Rn<694>"
"Rn_695v" "Rn<695>"
"Rn_696v" "Rn<696>"
"Rn_697v" "Rn<697>"
"Rn_698v" "Rn<698>"
"Rn_699v" "Rn<699>"
"Rn_700v" "Rn<700>"
"Rn_701v" "Rn<701>"
"Rn_702v" "Rn<702>"
"Rn_703v" "Rn<703>"
"Rn_704v" "Rn<704>"
"Rn_705v" "Rn<705>"
"Rn_706v" "Rn<706>"
"Rn_707v" "Rn<707>"
"Rn_708v" "Rn<708>"
"Rn_709v" "Rn<709>"