HEADER
"PSFversion" "1.00"
"__NEXT_FILE__" "array16r_3"
